                               Psi4 1.3.2 release

  ==> Input File <==

--------------------------------------------------------------------------
memory 4 GB

molecule  {
0 3
O   -1.639463546127   -0.022711330962    0.000000000000
H   -0.676514348020   -0.024533433983    0.000000000000
H   -1.864407177712    0.912114232532    0.000000000000
O    1.799564701993   -0.033214328423    0.000000000000
}
set {
basis aug-cc-pvtz
reference uhf
e_convergence 10
scf_type pk
freeze_core true
}

set ccenergy {
e_convergence 10
r_convergence 10
}

e = energy('ccsd(t)')

print_out('Stephenergy {}'.format(e))

--------------------------------------------------------------------------

    Molecular point group: cs

    Geometry (in Angstrom), charge = 0, multiplicity = 3:

       Center              X                  Y                   Z               Mass
    ------------   -----------------  -----------------  -----------------  -----------------
         O           -1.639463546127    -0.022711330962     0.000000000000    15.994914619570
         H           -0.676514348020    -0.024533433983     0.000000000000     1.007825032230
         H           -1.864407177712     0.912114232532     0.000000000000     1.007825032230
         O            1.799564701993    -0.033214328423     0.000000000000    15.994914619570

  Charge       = 0
  Multiplicity = 3
  Basis Set: AUG-CC-PVTZ
    Blend: AUG-CC-PVTZ

    Orbital Energies [Eh]
    ---------------------

    Alpha Occupied:

       1Ap   -20.730895     2Ap   -20.561806     3Ap    -1.439702
       4Ap    -1.345578     5Ap    -0.730617     1App   -0.730529
       6Ap    -0.708492     7Ap    -0.632919     8Ap    -0.579128
       2App   -0.504248

    Alpha Virtual:

       9Ap     0.034154    10Ap     0.053408    11Ap     0.128631
       3App    0.132433    12Ap     0.147320    13Ap     0.160373
      14Ap     0.182811     4App    0.183131    15Ap     0.206958
      16Ap     0.235564    17Ap     0.268866     5App    0.280998
      18Ap     0.289374     6App    0.318200    19Ap     0.361717
      20Ap     0.386857    21Ap     0.457012    22Ap     0.554652
       7App    0.603397    23Ap     0.607977    24Ap     0.643081
      25Ap     0.666633     8App    0.686452    26Ap     0.711321
       9App    0.733474    10App    0.747581    27Ap     0.757157
      28Ap     0.788904    11App    0.824975    29Ap     0.837732
      30Ap     0.853871    12App    0.876224    31Ap     0.913751
      32Ap     0.928175    13App    0.937569    33Ap     0.949379
      14App    0.973534    34Ap     0.975778    35Ap     1.038233
      36Ap     1.084381    15App    1.163096    37Ap     1.170323
      16App    1.211016    38Ap     1.219375    39Ap     1.265338
      40Ap     1.276430    17App    1.521347    41Ap     1.531160
      18App    1.588941    42Ap     1.599919    43Ap     1.807484
      44Ap     1.815561    19App    1.978605    45Ap     1.978664
      46Ap     2.004296    20App    2.009438    47Ap     2.018462
      21App    2.034509    48Ap     2.039768    22App    2.089462
      49Ap     2.122492    50Ap     2.138427    23App    2.162479
      51Ap     2.238341    24App    2.286531    52Ap     2.326115
      53Ap     2.368993    25App    2.427621    54Ap     2.453259
      26App    2.458737    55Ap     2.484358    56Ap     2.546789
      57Ap     2.654910    27App    2.722710    58Ap     2.723236
      59Ap     2.855273    60Ap     2.906586    28App    2.934303
      61Ap     3.684412    62Ap     3.810832    29App    4.030409
      30App    4.053831    63Ap     4.068304    31App    4.142469
      64Ap     4.178900    65Ap     4.269494    32App    4.288449
      66Ap     4.359737    33App    4.389288    67Ap     4.425419
      34App    4.429100    68Ap     4.565512    69Ap     4.773968
      70Ap     4.938261    35App    5.151290    71Ap     5.182540
      72Ap     5.293732    73Ap     5.367157    36App    5.527074
      74Ap     5.675032    75Ap     6.194629    37App    6.313996
      76Ap     6.314018    38App    6.366627    77Ap     6.367747
      39App    6.466385    78Ap     6.483615    79Ap     6.530167
      80Ap     6.595511    40App    6.716824    81Ap     6.814153
      41App    6.818147    82Ap     6.919235    42App    6.924634
      83Ap     6.952712    84Ap     7.039081    43App    7.139605
      44App    7.270424    85Ap     7.310377    45App    7.323723
      86Ap     7.353562    46App    7.410184    87Ap     7.633827
      88Ap     7.921982    89Ap     7.956069    90Ap     8.810334
      91Ap     8.988700    92Ap    16.305349

    Beta Occupied:

       1Ap   -20.652149     2Ap   -20.561879     3Ap    -1.345868
       4Ap    -1.097154     5Ap    -0.708293     6Ap    -0.581962
       7Ap    -0.540557     1App   -0.504286

    Beta Virtual:

       8Ap     0.034072     9Ap     0.047341     2App    0.049948
      10Ap     0.058736    11Ap     0.143144    12Ap     0.151699
       3App    0.160126    13Ap     0.179769    14Ap     0.207454
      15Ap     0.217426     4App    0.226514    16Ap     0.244406
      17Ap     0.271266     5App    0.281192    18Ap     0.292042
       6App    0.319680    19Ap     0.365065    20Ap     0.393812
      21Ap     0.457480    22Ap     0.556787     7App    0.636281
      23Ap     0.638244    24Ap     0.646443    25Ap     0.670198
       8App    0.700429    26Ap     0.711956     9App    0.734243
      10App    0.748642    27Ap     0.770974    28Ap     0.800412
      29Ap     0.845017    11App    0.860715    30Ap     0.911840
      12App    0.925581    31Ap     0.928971    32Ap     0.946068
      13App    0.948193    33Ap     0.967076    34Ap     1.008180
      14App    1.022992    35Ap     1.039825    36Ap     1.093379
      15App    1.167546    37Ap     1.173409    16App    1.218767
      38Ap     1.260486    39Ap     1.271239    40Ap     1.284754
      17App    1.522133    41Ap     1.545133    18App    1.589918
      42Ap     1.626757    43Ap     1.810151    44Ap     1.817878
      45Ap     2.015365    19App    2.016764    46Ap     2.016935
      20App    2.038652    47Ap     2.045373    21App    2.124543
      48Ap     2.163049    49Ap     2.173185    22App    2.179261
      50Ap     2.180457    23App    2.213694    51Ap     2.278589
      24App    2.287960    52Ap     2.336073    53Ap     2.385291
      25App    2.431094    54Ap     2.455463    26App    2.466192
      55Ap     2.491113    56Ap     2.552551    57Ap     2.661660
      27App    2.723280    58Ap     2.725278    59Ap     2.858831
      60Ap     2.908460    28App    2.934949    61Ap     3.684687
      62Ap     3.811929    29App    4.030998    30App    4.126785
      63Ap     4.169704    31App    4.239562    64Ap     4.240899
      65Ap     4.276506    32App    4.288481    66Ap     4.376372
      33App    4.389573    34App    4.430602    67Ap     4.456188
      68Ap     4.566266    69Ap     4.774985    70Ap     4.938985
      35App    5.151279    71Ap     5.182942    72Ap     5.293939
      73Ap     5.367950    36App    5.527074    74Ap     5.675352
      75Ap     6.195503    37App    6.422950    76Ap     6.422965
      38App    6.442771    77Ap     6.444043    78Ap     6.518491
      39App    6.522253    79Ap     6.551079    80Ap     6.642523
      40App    6.719206    81Ap     6.920345    41App    7.005537
      82Ap     7.006280    42App    7.034179    83Ap     7.060018
      84Ap     7.122155    43App    7.141490    44App    7.270540
      85Ap     7.310626    45App    7.324268    86Ap     7.353694
      46App    7.410753    87Ap     7.636046    88Ap     7.922366
      89Ap     7.956387    90Ap     8.813938    91Ap     9.062915
      92Ap    16.305646

    Final Occupation by Irrep:
             Ap   App
    DOCC [     7,    1 ]
    SOCC [     1,    1 ]

  @UHF Final Energy:  -150.87461481448707

   => Energetics <=

    Nuclear Repulsion Energy =             21.8253904546300816
    One-Electron Energy =                -251.4439492130140934
    Two-Electron Energy =                  78.7439439438969515
    Total Energy =                       -150.8746148144870745

  UHF NO Occupations:
  HONO-2 :    7 Ap 1.9970403
  HONO-1 :    8 Ap 1.0000000
  HONO-0 :    2App 1.0000000
  LUNO+0 :    9 Ap 0.0029597
  LUNO+1 :   10 Ap 0.0017389
  LUNO+2 :   11 Ap 0.0000024
  LUNO+3 :   12 Ap 0.0000006

Computation Completed

Properties will be evaluated at   0.000000,   0.000000,   0.000000 [a0]

Properties computed using the SCF density matrix

  Nuclear Dipole Moment: [e a0]
     X:    -2.3813      Y:     0.8318      Z:     0.0000

  Electronic Dipole Moment: [e a0]
     X:     2.9381      Y:    -0.2217      Z:     0.0000

  Dipole Moment: [e a0]
     X:     0.5569      Y:     0.6101      Z:     0.0000     Total:     0.8261

  Dipole Moment: [D]
     X:     1.4154      Y:     1.5508      Z:     0.0000     Total:     2.0996

*** tstop() called on c1-11.compute.lan at Tue Mar  9 14:29:35 2021
Module time:
	user time   =      65.23 seconds =       1.09 minutes
	system time =       3.48 seconds =       0.06 minutes
	total time  =          7 seconds =       0.12 minutes
Total time:
	user time   =      65.23 seconds =       1.09 minutes
	system time =       3.48 seconds =       0.06 minutes
	total time  =          7 seconds =       0.12 minutes
 MINTS: Wrapper to libmints.
   by Justin Turney

   Calculation information:
      Number of threads:                12
      Number of atoms:                   4
      Number of AO shells:              46
      Number of SO shells:              46
      Number of primitives:             82
      Number of atomic orbitals:       160
      Number of basis functions:       138

      Number of irreps:                  2
      Integral cutoff                 0.00e+00
      Number of functions per irrep: [  92   46 ]

 OEINTS: Overlap, kinetic, potential, dipole, and quadrupole integrals
         stored in file 35.

      Computing two-electron integrals...done
      Computed 22927501 non-zero two-electron integrals.
        Stored in file 33.

*** tstart() called on c1-11.compute.lan
*** at Tue Mar  9 14:29:38 2021

	Wfn Parameters:
	--------------------
	Wavefunction         = CCSD_T
	Number of irreps     = 2
	Number of MOs        = 138
	Number of active MOs = 136
	AO-Basis             = NONE
	Semicanonical        = false
	Reference            = UHF
	Print Level          = 1

	IRREP	# MOs	# FZDC	# DOCC	# SOCC	# VIRT	# FZVR
	-----	-----	------	------	------	------	------
	 Ap	   92	    2	    5	    1	    84	    0
	 App	   46	    0	    1	    1	    44	    0
	Transforming integrals...
	IWL integrals will be deleted.
	(OO|OO)...
	Presorting SO-basis two-electron integrals.
	Sorting File: SO Ints (nn|nn) nbuckets = 1
	Transforming the one-electron integrals and constructing Fock matrices
	Starting AA/AB first half-transformation.
	Sorting AA/AB half-transformed integrals.
	Starting BB first half-transformation.
	Sorting BB half-transformed integrals.
	First half integral transformation complete.
	Starting AA second half-transformation.
	Starting AB second half-transformation.
	Starting BB second half-transformation.
	Two-electron integral transformation complete.
	(OO|OV)...
	Starting AA second half-transformation.
	Starting AB second half-transformation.
	Starting BB second half-transformation.
	Two-electron integral transformation complete.
	(OO|VV)...
	Starting AA second half-transformation.
	Starting AB second half-transformation.
	Starting BB second half-transformation.
	Two-electron integral transformation complete.
	(OV|OO)...
	Starting AA/AB first half-transformation.
	Sorting AA/AB half-transformed integrals.
	Starting BB first half-transformation.
	Sorting BB half-transformed integrals.
	First half integral transformation complete.
	Starting AA second half-transformation.
	Starting AB second half-transformation.
	Starting BB second half-transformation.
	Two-electron integral transformation complete.
	(OV|OV)...
	Starting AA second half-transformation.
	Starting AB second half-transformation.
	Starting BB second half-transformation.
	Two-electron integral transformation complete.
	(OV|VV)...
	Starting AA second half-transformation.
	Starting AB second half-transformation.
	Starting BB second half-transformation.
	Two-electron integral transformation complete.
	(VV|OO)...
	Starting AA/AB first half-transformation.
	Sorting AA/AB half-transformed integrals.
	Starting BB first half-transformation.
	Sorting BB half-transformed integrals.
	First half integral transformation complete.
	Starting AA second half-transformation.
	Starting AB second half-transformation.
	Starting BB second half-transformation.
	Two-electron integral transformation complete.
	(VV|OV)...
	Starting AA second half-transformation.
	Starting AB second half-transformation.
	Starting BB second half-transformation.
	Two-electron integral transformation complete.
	(VV|VV)...
	Starting AA second half-transformation.
	Starting AB second half-transformation.
	Starting BB second half-transformation.
	Two-electron integral transformation complete.
	Frozen core energy     =   -125.42634682666525

	Size of irrep 0 of <AB|CD> integrals:     19.643 (MW) /    157.141 (MB)
	Size of irrep 1 of <AB|CD> integrals:     13.660 (MW) /    109.283 (MB)
	Total:                                    33.303 (MW) /    266.424 (MB)

	Size of irrep 0 of <ab|cd> integrals:     20.794 (MW) /    166.349 (MB)
	Size of irrep 1 of <ab|cd> integrals:     14.631 (MW) /    117.045 (MB)
	Total:                                    35.424 (MW) /    283.394 (MB)

	Size of irrep 0 of <Ab|Cd> integrals:     83.174 (MW) /    665.395 (MB)
	Size of irrep 1 of <Ab|Cd> integrals:     56.550 (MW) /    452.403 (MB)
	Total:                                   139.725 (MW) /   1117.798 (MB)

	Size of irrep 0 of <IA|BC> integrals:      5.323 (MW) /     42.586 (MB)
	Size of irrep 1 of <IA|BC> integrals:      3.193 (MW) /     25.547 (MB)
	Total:                                     8.517 (MW) /     68.133 (MB)

	Size of irrep 0 of <ia|bc> integrals:      4.348 (MW) /     34.780 (MB)
	Size of irrep 1 of <ia|bc> integrals:      2.372 (MW) /     18.972 (MB)
	Total:                                     6.719 (MW) /     53.752 (MB)

	Size of irrep 0 of <Ia|Bc> integrals:      5.472 (MW) /     43.776 (MB)
	Size of irrep 1 of <Ia|Bc> integrals:      3.309 (MW) /     26.470 (MB)
	Total:                                     8.781 (MW) /     70.246 (MB)

	Size of irrep 0 of <iA|bC> integrals:      4.232 (MW) /     33.853 (MB)
	Size of irrep 1 of <iA|bC> integrals:      2.286 (MW) /     18.289 (MB)
	Total:                                     6.518 (MW) /     52.142 (MB)

	Size of irrep 0 of tIjAb amplitudes:       0.292 (MW) /      2.335 (MB)
	Size of irrep 1 of tIjAb amplitudes:       0.120 (MW) /      0.963 (MB)
	Total:                                     0.412 (MW) /      3.297 (MB)

	Nuclear Rep. energy          =     21.82539045463008
	SCF energy                   =   -150.87461481448707
	One-electron energy          =    -83.09798275512682
	Two-electron (AA) energy     =      9.92270453729722
	Two-electron (BB) energy     =      5.28121008079100
	Two-electron (AB) energy     =     20.62040969458557
	Two-electron energy          =     35.82432431267378
	Reference energy             =   -150.87461481448821

*** tstop() called on c1-11.compute.lan at Tue Mar  9 14:30:19 2021
Module time:
	user time   =     107.28 seconds =       1.79 minutes
	system time =      26.31 seconds =       0.44 minutes
	total time  =         41 seconds =       0.68 minutes
Total time:
	user time   =     178.66 seconds =       2.98 minutes
	system time =      30.57 seconds =       0.51 minutes
	total time  =         51 seconds =       0.85 minutes
            **************************
            *                        *
            *        CCENERGY        *
            *                        *
            **************************

    Nuclear Rep. energy (wfn)     =   21.825390454630082
    SCF energy          (wfn)     = -150.874614814487074
    Reference energy    (file100) = -150.874614814488211

    Input parameters:
    -----------------
    Wave function   =     CCSD_T
    Reference wfn   =     UHF
    Brueckner       =     No
    Memory (Mbytes) =     4000.0
    Maxiter         =     50
    R_Convergence   =     1.0e-10
    E_Convergence   =     1.0e-10
    Restart         =     Yes
    DIIS            =     Yes
    AO Basis        =     NONE
    ABCD            =     NEW
    Cache Level     =     2
    Cache Type      =     LRU
    Print Level     =     1
    Num. of threads =     12
    # Amps to Print =     10
    Print MP2 Amps? =     No
    Analyze T2 Amps =     No
    Print Pair Ener =     No
    Local CC        =     No
    SCS-MP2         =     False
    SCSN-MP2        =     False
    SCS-CCSD        =     False

MP2 correlation energy -0.4161170583831941
                Solving CC Amplitude Equations
                ------------------------------
  Iter             Energy              RMS        T1Diag      D1Diag    New D1Diag    D2Diag
  ----     ---------------------    ---------   ----------  ----------  ----------   --------
     0        -0.416117058383194    0.000e+00    0.000000    0.000000    0.000000    0.000000
     1        -0.426882644460913    5.666e-02    0.010454    0.000000    0.000000    0.000000
     2        -0.434971498083120    1.686e-02    0.010933    0.000000    0.000000    0.000000
     3        -0.437089398200085    8.476e-03    0.012770    0.000000    0.000000    0.000000
     4        -0.436963861327493    2.519e-03    0.013119    0.000000    0.000000    0.000000
     5        -0.436952478325358    1.271e-03    0.013263    0.000000    0.000000    0.000000
     6        -0.436978418570475    5.023e-04    0.013276    0.000000    0.000000    0.000000
     7        -0.436982442598499    2.253e-04    0.013265    0.000000    0.000000    0.000000
     8        -0.436983234343783    7.588e-05    0.013259    0.000000    0.000000    0.000000
     9        -0.436984452753494    4.504e-05    0.013259    0.000000    0.000000    0.000000
    10        -0.436983274462758    3.667e-05    0.013259    0.000000    0.000000    0.000000
    11        -0.436983375865297    3.525e-05    0.013259    0.000000    0.000000    0.000000
    12        -0.436983238881687    3.464e-05    0.013260    0.000000    0.000000    0.000000
    13        -0.436983151674186    3.419e-05    0.013261    0.000000    0.000000    0.000000
    14        -0.436983581518878    3.326e-05    0.013267    0.000000    0.000000    0.000000
    15        -0.436983623774018    3.083e-05    0.013280    0.000000    0.000000    0.000000
    16        -0.436983598214893    2.538e-05    0.013353    0.000000    0.000000    0.000000
    17        -0.436983574492173    1.472e-05    0.013403    0.000000    0.000000    0.000000
    18        -0.436983499587461    6.469e-06    0.013425    0.000000    0.000000    0.000000
    19        -0.436983651726263    2.873e-06    0.013430    0.000000    0.000000    0.000000
    20        -0.436983733416557    1.355e-06    0.013431    0.000000    0.000000    0.000000
    21        -0.436983739021967    5.674e-07    0.013431    0.000000    0.000000    0.000000
    22        -0.436983739343608    2.254e-07    0.013431    0.000000    0.000000    0.000000
    23        -0.436983739901978    9.618e-08    0.013431    0.000000    0.000000    0.000000
    24        -0.436983739784498    4.080e-08    0.013431    0.000000    0.000000    0.000000
    25        -0.436983740440342    2.147e-08    0.013431    0.000000    0.000000    0.000000
    26        -0.436983740819565    7.494e-09    0.013431    0.000000    0.000000    0.000000
    27        -0.436983740892986    2.678e-09    0.013431    0.000000    0.000000    0.000000
    28        -0.436983740917762    1.612e-09    0.013431    0.000000    0.000000    0.000000
    29        -0.436983740918045    1.317e-09    0.013431    0.000000    0.000000    0.000000
    30        -0.436983740907935    1.173e-09    0.013431    0.000000    0.000000    0.000000
    31        -0.436983740899264    1.098e-09    0.013431    0.000000    0.000000    0.000000
    32        -0.436983740893514    1.047e-09    0.013431    0.000000    0.000000    0.000000
    33        -0.436983740890481    9.613e-10    0.013431    0.000000    0.000000    0.000000
    34        -0.436983740891593    7.184e-10    0.013431    0.000000    0.000000    0.000000
    35        -0.436983740893198    3.701e-10    0.013431    0.000000    0.000000    0.000000
    36        -0.436983740893916    1.461e-10    0.013431    0.000000    0.000000    0.000000

      * MP2 total energy                      = -151.290731872871419
      * CCSD total energy                     = -151.311598555380641
      * CCSD(T) total energy                     = -151.323871607789528
*** Psi4 exiting successfully. Buy a developer a beer!
