                               Psi4 1.3.2 release

  ==> Input File <==

--------------------------------------------------------------------------
memory 4 GB

molecule  {
0 3
O   -0.000000000000    0.000000000000   -1.616354722000
H    0.000000000000   -0.753858521800   -1.019959688800
H   -0.000000000000    0.753858521800   -1.019959688800
O   -0.000000000000    0.000000000000    1.744888187900
}
set {
basis aug-cc-pvtz
reference uhf
e_convergence 10
scf_type pk
freeze_core true
}

set ccenergy {
e_convergence 10
r_convergence 10
}

e = energy('ccsd(t)')

print_out('Stephenergy {}'.format(e))

--------------------------------------------------------------------------

    Molecular point group: c2v

    Geometry (in Angstrom), charge = 0, multiplicity = 3:

       Center              X                  Y                   Z               Mass
    ------------   -----------------  -----------------  -----------------  -----------------
         O            0.000000000000     0.000000000000    -1.616354722010    15.994914619570
         H            0.000000000000    -0.753858521800    -1.019959688810     1.007825032230
         H           -0.000000000000     0.753858521800    -1.019959688810     1.007825032230
         O            0.000000000000     0.000000000000     1.744888187890    15.994914619570

  Charge       = 0
  Multiplicity = 3
  Basis Set: AUG-CC-PVTZ
    Blend: AUG-CC-PVTZ

    Orbital Energies [Eh]
    ---------------------

    Alpha Occupied:

       1A1   -20.729490     2A1   -20.562566     3A1    -1.438568
       4A1    -1.346861     1B2    -0.729996     1B1    -0.729546
       2B2    -0.707871     5A1    -0.633289     6A1    -0.579690
       2B1    -0.505055

    Alpha Virtual:

       7A1     0.035602     3B2     0.048552     3B1     0.131907
       8A1     0.134272     9A1     0.148844     4B2     0.158310
       4B1     0.181867     5B2     0.185042    10A1     0.189574
      11A1     0.252740     6B2     0.258762     1A2     0.265984
      12A1     0.273734     5B1     0.320927    13A1     0.370298
       7B2     0.383040    14A1     0.454231     8B2     0.472359
       2A2     0.609347     9B2     0.618746    15A1     0.620162
      16A1     0.621851     6B1     0.641980    17A1     0.717733
       3A2     0.731132    10B2     0.737907     7B1     0.744828
      18A1     0.800628     8B1     0.838461    19A1     0.840777
      11B2     0.852705     9B1     0.916143    20A1     0.935679
       4A2     0.935926    12B2     0.942153    21A1     0.959325
      10B1     0.967194    13B2     0.970440    22A1     1.050120
      14B2     1.055264    11B1     1.128842     5A2     1.186975
      23A1     1.188714    24A1     1.265028    15B2     1.266685
      16B2     1.276013    25A1     1.356788     6A2     1.511355
      12B1     1.591636    26A1     1.650702    27A1     1.829378
      17B2     1.832674    18B2     1.971597    13B1     1.978164
      19B2     1.993243    28A1     2.005236     7A2     2.012475
      14B1     2.027762    29A1     2.037659     8A2     2.043315
      20B2     2.087155    30A1     2.089023    15B1     2.125038
      31A1     2.155308    21B2     2.274510    16B1     2.282612
       9A2     2.331644    32A1     2.352936    33A1     2.404593
      34A1     2.488898    22B2     2.496982    17B1     2.514383
      35A1     2.577198    23B2     2.690218    18B1     2.719911
      36A1     2.822279    10A2     2.889539    24B2     2.907876
      25B2     3.668381    37A1     3.753478    11A2     4.033154
      19B1     4.051192    26B2     4.089604    20B1     4.104256
      38A1     4.160438    27B2     4.278970    21B1     4.283137
      39A1     4.368287    12A2     4.384087    22B1     4.417738
      40A1     4.419789    28B2     4.531264    41A1     4.751958
      29B2     4.854894    13A2     5.151053    30B2     5.166289
      31B2     5.251918    42A1     5.373858    23B1     5.529648
      43A1     5.677033    44A1     6.201375    24B1     6.314681
      32B2     6.315738    14A2     6.371967    45A1     6.378325
      25B1     6.404275    33B2     6.458549    46A1     6.487456
      34B2     6.529809    26B1     6.742884    15A2     6.819569
      47A1     6.821118    27B1     6.930573    48A1     6.931101
      35B2     6.961738    49A1     7.035395    28B1     7.136954
      29B1     7.261798    16A2     7.319528    36B2     7.349705
      17A2     7.358819    50A1     7.361050    51A1     7.551802
      52A1     7.899743    37B2     7.939493    53A1     8.561683
      38B2     8.815931    54A1    15.747217

    Beta Occupied:

       1A1   -20.650935     2A1   -20.562610     3A1    -1.347068
       4A1    -1.096304     1B2    -0.708046     5A1    -0.584762
       6A1    -0.538696     1B1    -0.505041

    Beta Virtual:

       2B2     0.035004     7A1     0.036747     2B1     0.049517
       3B2     0.069608     8A1     0.140381     9A1     0.151356
       3B1     0.160540     4B2     0.180603    10A1     0.189904
       5B2     0.222844     4B1     0.225526    11A1     0.261796
       6B2     0.263633     1A2     0.266340    12A1     0.275415
       5B1     0.321692    13A1     0.373707     7B2     0.388622
      14A1     0.455455     8B2     0.472859     9B2     0.621025
      15A1     0.623634     2A2     0.641490    16A1     0.652602
       6B1     0.653737    17A1     0.719015     3A2     0.732512
       7B1     0.747210    10B2     0.749533    18A1     0.811403
      19A1     0.851034     8B1     0.911790     9B1     0.932335
       4A2     0.937549    11B2     0.940894    20A1     0.941363
      12B2     0.946125    21A1     0.960347    13B2     1.013684
      10B1     1.027418    22A1     1.050798    14B2     1.058530
      11B1     1.135151     5A2     1.187747    23A1     1.192782
      15B2     1.271948    16B2     1.287965    24A1     1.290108
      25A1     1.406625     6A2     1.511497    12B1     1.591776
      26A1     1.664728    27A1     1.830730    17B2     1.833945
      18B2     1.980869    13B1     2.016181    19B2     2.022746
      28A1     2.030409     7A2     2.045419    14B1     2.048960
      29A1     2.101104    20B2     2.133629    30A1     2.164765
       8A2     2.182923    15B1     2.192227    31A1     2.200551
      16B1     2.287811    21B2     2.317406     9A2     2.334988
      32A1     2.370474    33A1     2.417341    34A1     2.492988
      22B2     2.502283    17B1     2.519165    35A1     2.579678
      23B2     2.690418    18B1     2.720015    36A1     2.822694
      10A2     2.889569    24B2     2.909897    25B2     3.668445
      37A1     3.753584    11A2     4.033254    19B1     4.103021
      38A1     4.174375    20B1     4.224438    26B2     4.244891
      21B1     4.283193    27B2     4.293436    39A1     4.384035
      12A2     4.384141    22B1     4.417997    40A1     4.437631
      28B2     4.531595    41A1     4.752202    29B2     4.855045
      13A2     5.151075    30B2     5.166295    31B2     5.251953
      42A1     5.374326    23B1     5.529652    43A1     5.677378
      44A1     6.203639    24B1     6.423507    32B2     6.424393
      14A2     6.448594    45A1     6.452927    25B1     6.459305
      33B2     6.499594    46A1     6.535867    34B2     6.545409
      26B1     6.749710    47A1     6.931739    15A2     7.008514
      48A1     7.010699    27B1     7.037464    35B2     7.070752
      49A1     7.115409    28B1     7.137435    29B1     7.261757
      16A2     7.319573    36B2     7.351557    17A2     7.358889
      50A1     7.361961    51A1     7.552710    52A1     7.899976
      37B2     7.939474    53A1     8.646133    38B2     8.815860
      54A1    15.747213

    Final Occupation by Irrep:
             A1    A2    B1    B2
    DOCC [     6,    0,    1,    1 ]
    SOCC [     0,    0,    1,    1 ]

  @UHF Final Energy:  -150.87350722594718

   => Energetics <=

    Nuclear Repulsion Energy =             22.1894881772000829
    One-Electron Energy =                -252.1695960036004180
    Two-Electron Energy =                  79.1066006004531630
    Total Energy =                       -150.8735072259471792

  UHF NO Occupations:
  HONO-2 :    6 A1 1.9970753
  HONO-1 :    2 B1 1.0000000
  HONO-0 :    2 B2 1.0000000
  LUNO+0 :    7 A1 0.0029247
  LUNO+1 :    8 A1 0.0016777
  LUNO+2 :    9 A1 0.0000024
  LUNO+3 :   10 A1 0.0000005

Computation Completed

Properties will be evaluated at   0.000000,   0.000000,   0.000000 [a0]

Properties computed using the SCF density matrix

  Nuclear Dipole Moment: [e a0]
     X:     0.0000      Y:     0.0000      Z:    -1.9117

  Electronic Dipole Moment: [e a0]
     X:     0.0000      Y:     0.0000      Z:     2.7475

  Dipole Moment: [e a0]
     X:     0.0000      Y:     0.0000      Z:     0.8358     Total:     0.8358

  Dipole Moment: [D]
     X:     0.0000      Y:     0.0000      Z:     2.1244     Total:     2.1244

*** tstop() called on b1-8.compute.lan at Wed Mar 10 09:39:24 2021
Module time:
	user time   =      36.09 seconds =       0.60 minutes
	system time =       0.94 seconds =       0.02 minutes
	total time  =          3 seconds =       0.05 minutes
Total time:
	user time   =      36.09 seconds =       0.60 minutes
	system time =       0.94 seconds =       0.02 minutes
	total time  =          3 seconds =       0.05 minutes
 MINTS: Wrapper to libmints.
   by Justin Turney

   Calculation information:
      Number of threads:                12
      Number of atoms:                   4
      Number of AO shells:              46
      Number of SO shells:              37
      Number of primitives:             82
      Number of atomic orbitals:       160
      Number of basis functions:       138

      Number of irreps:                  4
      Integral cutoff                 0.00e+00
      Number of functions per irrep: [  54   17   29   38 ]

 OEINTS: Overlap, kinetic, potential, dipole, and quadrupole integrals
         stored in file 35.

      Computing two-electron integrals...done
      Computed 11334721 non-zero two-electron integrals.
        Stored in file 33.

*** tstart() called on b1-8.compute.lan
*** at Wed Mar 10 09:39:26 2021

	Wfn Parameters:
	--------------------
	Wavefunction         = CCSD_T
	Number of irreps     = 4
	Number of MOs        = 138
	Number of active MOs = 136
	AO-Basis             = NONE
	Semicanonical        = false
	Reference            = UHF
	Print Level          = 1

	IRREP	# MOs	# FZDC	# DOCC	# SOCC	# VIRT	# FZVR
	-----	-----	------	------	------	------	------
	 A1	   54	    2	    4	    0	    48	    0
	 A2	   17	    0	    0	    0	    17	    0
	 B1	   29	    0	    1	    1	    27	    0
	 B2	   38	    0	    1	    1	    36	    0
	Transforming integrals...
	IWL integrals will be deleted.
	(OO|OO)...
	Presorting SO-basis two-electron integrals.
	Sorting File: SO Ints (nn|nn) nbuckets = 1
	Transforming the one-electron integrals and constructing Fock matrices
	Starting AA/AB first half-transformation.
	Sorting AA/AB half-transformed integrals.
	Starting BB first half-transformation.
	Sorting BB half-transformed integrals.
	First half integral transformation complete.
	Starting AA second half-transformation.
	Starting AB second half-transformation.
	Starting BB second half-transformation.
	Two-electron integral transformation complete.
	(OO|OV)...
	Starting AA second half-transformation.
	Starting AB second half-transformation.
	Starting BB second half-transformation.
	Two-electron integral transformation complete.
	(OO|VV)...
	Starting AA second half-transformation.
	Starting AB second half-transformation.
	Starting BB second half-transformation.
	Two-electron integral transformation complete.
	(OV|OO)...
	Starting AA/AB first half-transformation.
	Sorting AA/AB half-transformed integrals.
	Starting BB first half-transformation.
	Sorting BB half-transformed integrals.
	First half integral transformation complete.
	Starting AA second half-transformation.
	Starting AB second half-transformation.
	Starting BB second half-transformation.
	Two-electron integral transformation complete.
	(OV|OV)...
	Starting AA second half-transformation.
	Starting AB second half-transformation.
	Starting BB second half-transformation.
	Two-electron integral transformation complete.
	(OV|VV)...
	Starting AA second half-transformation.
	Starting AB second half-transformation.
	Starting BB second half-transformation.
	Two-electron integral transformation complete.
	(VV|OO)...
	Starting AA/AB first half-transformation.
	Sorting AA/AB half-transformed integrals.
	Starting BB first half-transformation.
	Sorting BB half-transformed integrals.
	First half integral transformation complete.
	Starting AA second half-transformation.
	Starting AB second half-transformation.
	Starting BB second half-transformation.
	Two-electron integral transformation complete.
	(VV|OV)...
	Starting AA second half-transformation.
	Starting AB second half-transformation.
	Starting BB second half-transformation.
	Two-electron integral transformation complete.
	(VV|VV)...
	Starting AA second half-transformation.
	Starting AB second half-transformation.
	Starting BB second half-transformation.
	Two-electron integral transformation complete.
	Frozen core energy     =   -125.55985753747656

	Size of irrep 0 of <AB|CD> integrals:      5.040 (MW) /     40.320 (MB)
	Size of irrep 1 of <AB|CD> integrals:      3.197 (MW) /     25.576 (MB)
	Size of irrep 2 of <AB|CD> integrals:      3.640 (MW) /     29.124 (MB)
	Size of irrep 3 of <AB|CD> integrals:      4.783 (MW) /     38.264 (MB)
	Total:                                    16.660 (MW) /    133.283 (MB)

	Size of irrep 0 of <ab|cd> integrals:      5.327 (MW) /     42.615 (MB)
	Size of irrep 1 of <ab|cd> integrals:      3.430 (MW) /     27.439 (MB)
	Size of irrep 2 of <ab|cd> integrals:      3.893 (MW) /     31.142 (MB)
	Size of irrep 3 of <ab|cd> integrals:      5.072 (MW) /     40.572 (MB)
	Total:                                    17.721 (MW) /    141.768 (MB)

	Size of irrep 0 of <Ab|Cd> integrals:     21.912 (MW) /    175.294 (MB)
	Size of irrep 1 of <Ab|Cd> integrals:     13.242 (MW) /    105.939 (MB)
	Size of irrep 2 of <Ab|Cd> integrals:     15.062 (MW) /    120.497 (MB)
	Size of irrep 3 of <Ab|Cd> integrals:     19.705 (MW) /    157.638 (MB)
	Total:                                    69.921 (MW) /    559.368 (MB)

	Size of irrep 0 of <IA|BC> integrals:      1.469 (MW) /     11.748 (MB)
	Size of irrep 1 of <IA|BC> integrals:      0.694 (MW) /      5.550 (MB)
	Size of irrep 2 of <IA|BC> integrals:      0.908 (MW) /      7.266 (MB)
	Size of irrep 3 of <IA|BC> integrals:      1.198 (MW) /      9.588 (MB)
	Total:                                     4.269 (MW) /     34.152 (MB)

	Size of irrep 0 of <ia|bc> integrals:      1.220 (MW) /      9.758 (MB)
	Size of irrep 1 of <ia|bc> integrals:      0.493 (MW) /      3.941 (MB)
	Size of irrep 2 of <ia|bc> integrals:      0.698 (MW) /      5.588 (MB)
	Size of irrep 3 of <ia|bc> integrals:      0.959 (MW) /      7.675 (MB)
	Total:                                     3.370 (MW) /     26.961 (MB)

	Size of irrep 0 of <Ia|Bc> integrals:      1.507 (MW) /     12.058 (MB)
	Size of irrep 1 of <Ia|Bc> integrals:      0.721 (MW) /      5.764 (MB)
	Size of irrep 2 of <Ia|Bc> integrals:      0.939 (MW) /      7.514 (MB)
	Size of irrep 3 of <Ia|Bc> integrals:      1.234 (MW) /      9.872 (MB)
	Total:                                     4.401 (MW) /     35.208 (MB)

	Size of irrep 0 of <iA|bC> integrals:      1.194 (MW) /      9.549 (MB)
	Size of irrep 1 of <iA|bC> integrals:      0.477 (MW) /      3.814 (MB)
	Size of irrep 2 of <iA|bC> integrals:      0.671 (MW) /      5.371 (MB)
	Size of irrep 3 of <iA|bC> integrals:      0.928 (MW) /      7.422 (MB)
	Total:                                     3.270 (MW) /     26.156 (MB)

	Size of irrep 0 of tIjAb amplitudes:       0.094 (MW) /      0.749 (MB)
	Size of irrep 1 of tIjAb amplitudes:       0.015 (MW) /      0.116 (MB)
	Size of irrep 2 of tIjAb amplitudes:       0.047 (MW) /      0.373 (MB)
	Size of irrep 3 of tIjAb amplitudes:       0.053 (MW) /      0.426 (MB)
	Total:                                     0.208 (MW) /      1.664 (MB)

	Nuclear Rep. energy          =     22.18948817720008
	SCF energy                   =   -150.87350722594718
	One-electron energy          =    -83.55548216945041
	Two-electron (AA) energy     =      9.99658641493059
	Two-electron (BB) energy     =      5.31932792115376
	Two-electron (AB) energy     =     20.73642996769386
	Two-electron energy          =     36.05234430377821
	Reference energy             =   -150.87350722594869

*** tstop() called on b1-8.compute.lan at Wed Mar 10 09:39:46 2021
Module time:
	user time   =     147.04 seconds =       2.45 minutes
	system time =       7.61 seconds =       0.13 minutes
	total time  =         20 seconds =       0.33 minutes
Total time:
	user time   =     188.44 seconds =       3.14 minutes
	system time =       8.83 seconds =       0.15 minutes
	total time  =         25 seconds =       0.42 minutes
            **************************
            *                        *
            *        CCENERGY        *
            *                        *
            **************************

    Nuclear Rep. energy (wfn)     =   22.189488177200083
    SCF energy          (wfn)     = -150.873507225947179
    Reference energy    (file100) = -150.873507225948686

    Input parameters:
    -----------------
    Wave function   =     CCSD_T
    Reference wfn   =     UHF
    Brueckner       =     No
    Memory (Mbytes) =     4000.0
    Maxiter         =     50
    R_Convergence   =     1.0e-10
    E_Convergence   =     1.0e-10
    Restart         =     Yes
    DIIS            =     Yes
    AO Basis        =     NONE
    ABCD            =     NEW
    Cache Level     =     2
    Cache Type      =     LRU
    Print Level     =     1
    Num. of threads =     12
    # Amps to Print =     10
    Print MP2 Amps? =     No
    Analyze T2 Amps =     No
    Print Pair Ener =     No
    Local CC        =     No
    SCS-MP2         =     False
    SCSN-MP2        =     False
    SCS-CCSD        =     False

MP2 correlation energy -0.4157783166675924
                Solving CC Amplitude Equations
                ------------------------------
  Iter             Energy              RMS        T1Diag      D1Diag    New D1Diag    D2Diag
  ----     ---------------------    ---------   ----------  ----------  ----------   --------
     0        -0.415778316667592    0.000e+00    0.000000    0.000000    0.000000    0.000000
     1        -0.426645135526822    5.639e-02    0.010368    0.000000    0.000000    0.000000
     2        -0.434736725272674    1.678e-02    0.010876    0.000000    0.000000    0.000000
     3        -0.436832057859634    8.417e-03    0.012696    0.000000    0.000000    0.000000
     4        -0.436708011338648    2.491e-03    0.013043    0.000000    0.000000    0.000000
     5        -0.436695328399227    1.266e-03    0.013187    0.000000    0.000000    0.000000
     6        -0.436720902976960    4.992e-04    0.013202    0.000000    0.000000    0.000000
     7        -0.436725203610775    2.309e-04    0.013193    0.000000    0.000000    0.000000
     8        -0.436725909915998    6.888e-05    0.013187    0.000000    0.000000    0.000000
     9        -0.436727147586152    2.956e-05    0.013187    0.000000    0.000000    0.000000
    10        -0.436725935897430    1.168e-05    0.013187    0.000000    0.000000    0.000000
    11        -0.436726041801672    6.168e-06    0.013187    0.000000    0.000000    0.000000
    12        -0.436726000763487    3.084e-06    0.013187    0.000000    0.000000    0.000000
    13        -0.436726000022778    1.602e-06    0.013187    0.000000    0.000000    0.000000
    14        -0.436726033395058    7.038e-07    0.013187    0.000000    0.000000    0.000000
    15        -0.436726032613946    1.775e-07    0.013187    0.000000    0.000000    0.000000
    16        -0.436726032558292    1.081e-07    0.013187    0.000000    0.000000    0.000000
    17        -0.436726033420343    3.040e-08    0.013187    0.000000    0.000000    0.000000
    18        -0.436726033014638    1.347e-08    0.013187    0.000000    0.000000    0.000000

      * MP2 total energy                      = -151.289285542616284
      * CCSD total energy                     = -151.310233258738549
      * CCSD(T) total energy                     = -151.322461412926771
*** Psi4 exiting successfully. Buy a developer a beer!
