                               Psi4 1.3.2 release

  ==> Input File <==

--------------------------------------------------------------------------
memory 4 GB

molecule  {
0 3
O    0.000000000000    0.000000000000   -1.646941415724
H    0.000000000000   -0.754286053900   -1.051428431098
H   -0.000000000000    0.754286053900   -1.051428431098
O    0.000000000000    0.000000000000    1.779440515302
}
set {
basis aug-cc-pvtz
reference uhf
e_convergence 10
scf_type pk
freeze_core true
}

set ccenergy {
e_convergence 10
r_convergence 10
}

e = energy('ccsd(t)')

print_out('Stephenergy {}'.format(e))

--------------------------------------------------------------------------

    Molecular point group: c2v

    Geometry (in Angstrom), charge = 0, multiplicity = 3:

       Center              X                  Y                   Z               Mass
    ------------   -----------------  -----------------  -----------------  -----------------
         O            0.000000000000     0.000000000000    -1.646941415724    15.994914619570
         H            0.000000000000    -0.754286053900    -1.051428431098     1.007825032230
         H           -0.000000000000     0.754286053900    -1.051428431098     1.007825032230
         O            0.000000000000     0.000000000000     1.779440515302    15.994914619570

  Charge       = 0
  Multiplicity = 3
  Basis Set: AUG-CC-PVTZ
    Blend: AUG-CC-PVTZ

    Orbital Energies [Eh]
    ---------------------

    Alpha Occupied:

       1A1   -20.728911     2A1   -20.562890     3A1    -1.437893
       4A1    -1.347240     1B2    -0.729305     1B1    -0.728920
       2B2    -0.708572     5A1    -0.632219     6A1    -0.580153
       2B1    -0.505386

    Alpha Virtual:

       7A1     0.035493     3B2     0.048540     3B1     0.132101
       8A1     0.134737     9A1     0.148056     4B2     0.158027
       4B1     0.181111     5B2     0.184944    10A1     0.189282
      11A1     0.250246     6B2     0.257604     1A2     0.266051
      12A1     0.273432     5B1     0.319785    13A1     0.367649
       7B2     0.382381    14A1     0.454234     8B2     0.471890
       2A2     0.609110     9B2     0.615891    15A1     0.618227
      16A1     0.619556     6B1     0.640505    17A1     0.717673
       3A2     0.730994    10B2     0.735778     7B1     0.742029
      18A1     0.800551    19A1     0.838312     8B1     0.840954
      11B2     0.854144     9B1     0.915252    20A1     0.925444
       4A2     0.934097    12B2     0.941879    21A1     0.958581
      10B1     0.960594    13B2     0.962141    22A1     1.048951
      14B2     1.054375    11B1     1.123085     5A2     1.185809
      23A1     1.186451    15B2     1.255120    24A1     1.262154
      16B2     1.274885    25A1     1.346121     6A2     1.511761
      12B1     1.592292    26A1     1.631392    27A1     1.828021
      17B2     1.829639    18B2     1.972628    13B1     1.978626
      19B2     1.989974    28A1     2.005406     7A2     2.011078
      14B1     2.026113    29A1     2.036327     8A2     2.039714
      20B2     2.081174    30A1     2.086137    15B1     2.119622
      31A1     2.145781    21B2     2.260441    16B1     2.278842
       9A2     2.329488    32A1     2.337013    33A1     2.402386
      34A1     2.488045    22B2     2.491906    17B1     2.505358
      35A1     2.575183    23B2     2.689065    18B1     2.718599
      36A1     2.820343    10A2     2.889105    24B2     2.901946
      25B2     3.667809    37A1     3.754377    11A2     4.031357
      19B1     4.050736    26B2     4.084519    20B1     4.102098
      38A1     4.148463    27B2     4.278204    21B1     4.284314
      39A1     4.367438    12A2     4.383448    40A1     4.405918
      22B1     4.416906    28B2     4.530408    41A1     4.749591
      29B2     4.853884    13A2     5.151530    30B2     5.164735
      31B2     5.253135    42A1     5.371492    23B1     5.529483
      43A1     5.676582    44A1     6.200124    24B1     6.315194
      32B2     6.316027    14A2     6.370038    45A1     6.375243
      25B1     6.402047    33B2     6.450066    46A1     6.479921
      34B2     6.527951    26B1     6.737456    15A2     6.819163
      47A1     6.820598    27B1     6.927335    48A1     6.930815
      35B2     6.956835    49A1     7.033080    28B1     7.136535
      29B1     7.261082    16A2     7.319330    36B2     7.345545
      50A1     7.357367    17A2     7.358547    51A1     7.549199
      52A1     7.901328    37B2     7.938631    53A1     8.529777
      38B2     8.815639    54A1    15.746991

    Beta Occupied:

       1A1   -20.650346     2A1   -20.562928     3A1    -1.347413
       4A1    -1.095593     1B2    -0.708712     5A1    -0.584246
       6A1    -0.538499     1B1    -0.505377

    Beta Virtual:

       2B2     0.035409     7A1     0.036611     2B1     0.049925
       3B2     0.069584     8A1     0.140900     9A1     0.150634
       3B1     0.160391     4B2     0.180864    10A1     0.189600
       5B2     0.221918     4B1     0.225318    11A1     0.259240
       6B2     0.263171     1A2     0.266365    12A1     0.274881
       5B1     0.320427    13A1     0.371033     7B2     0.387431
      14A1     0.455362     8B2     0.472414     9B2     0.618339
      15A1     0.620624     2A2     0.641337    16A1     0.651325
       6B1     0.652604    17A1     0.719008     3A2     0.732423
       7B1     0.744021    10B2     0.747190    18A1     0.809074
      19A1     0.851355     8B1     0.912187     9B1     0.930492
      20A1     0.930792     4A2     0.935491    11B2     0.940224
      12B2     0.944532    21A1     0.959509    13B2     1.009735
      10B1     1.024976    22A1     1.049534    14B2     1.057094
      11B1     1.128109     5A2     1.186511    23A1     1.190538
      15B2     1.268623    16B2     1.278127    24A1     1.280867
      25A1     1.403780     6A2     1.511867    12B1     1.592394
      26A1     1.643942    27A1     1.829141    17B2     1.830872
      18B2     1.980095    13B1     2.016723    19B2     2.021445
      28A1     2.030673     7A2     2.041486    14B1     2.046327
      29A1     2.099922    20B2     2.124960    30A1     2.155374
       8A2     2.182397    15B1     2.188924    31A1     2.195239
      16B1     2.283071    21B2     2.306428     9A2     2.332420
      32A1     2.357772    33A1     2.413332    34A1     2.492249
      22B2     2.496529    17B1     2.510017    35A1     2.578182
      23B2     2.689227    18B1     2.718688    36A1     2.820650
      10A2     2.889127    24B2     2.903970    25B2     3.667845
      37A1     3.754519    11A2     4.031443    19B1     4.101466
      38A1     4.163232    20B1     4.223528    26B2     4.241209
      21B1     4.284336    27B2     4.291731    12A2     4.383495
      39A1     4.391629    40A1     4.414473    22B1     4.417088
      28B2     4.530608    41A1     4.749735    29B2     4.853974
      13A2     5.151547    30B2     5.164740    31B2     5.253157
      42A1     5.371941    23B1     5.529487    43A1     5.676915
      44A1     6.201805    24B1     6.424042    32B2     6.424732
      14A2     6.446699    45A1     6.450295    25B1     6.457346
      33B2     6.494785    46A1     6.528739    34B2     6.539871
      26B1     6.743848    47A1     6.930848    15A2     7.008188
      48A1     7.009999    27B1     7.034761    35B2     7.065925
      49A1     7.114042    28B1     7.136813    29B1     7.261038
      16A2     7.319373    36B2     7.347578    50A1     7.358041
      17A2     7.358603    51A1     7.549902    52A1     7.901560
      37B2     7.938614    53A1     8.614902    38B2     8.815579
      54A1    15.746985

    Final Occupation by Irrep:
             A1    A2    B1    B2
    DOCC [     6,    0,    1,    1 ]
    SOCC [     0,    0,    1,    1 ]

  @UHF Final Energy:  -150.87364237233567

   => Energetics <=

    Nuclear Repulsion Energy =             21.9352770965408013
    One-Electron Energy =                -251.6632361954022485
    Two-Electron Energy =                  78.8543167265257665
    Total Energy =                       -150.8736423723356666

  UHF NO Occupations:
  HONO-2 :    6 A1 1.9970743
  HONO-1 :    2 B2 1.0000000
  HONO-0 :    2 B1 1.0000000
  LUNO+0 :    7 A1 0.0029257
  LUNO+1 :    8 A1 0.0016871
  LUNO+2 :    9 A1 0.0000024
  LUNO+3 :   10 A1 0.0000004

Computation Completed

Properties will be evaluated at   0.000000,   0.000000,   0.000000 [a0]

Properties computed using the SCF density matrix

  Nuclear Dipole Moment: [e a0]
     X:     0.0000      Y:     0.0000      Z:    -1.9707

  Electronic Dipole Moment: [e a0]
     X:     0.0000      Y:     0.0000      Z:     2.8031

  Dipole Moment: [e a0]
     X:     0.0000      Y:     0.0000      Z:     0.8324     Total:     0.8324

  Dipole Moment: [D]
     X:     0.0000      Y:     0.0000      Z:     2.1158     Total:     2.1158

*** tstop() called on c1-11.compute.lan at Wed Mar 10 09:49:35 2021
Module time:
	user time   =      41.78 seconds =       0.70 minutes
	system time =       2.66 seconds =       0.04 minutes
	total time  =          6 seconds =       0.10 minutes
Total time:
	user time   =      41.78 seconds =       0.70 minutes
	system time =       2.66 seconds =       0.04 minutes
	total time  =          6 seconds =       0.10 minutes
 MINTS: Wrapper to libmints.
   by Justin Turney

   Calculation information:
      Number of threads:                12
      Number of atoms:                   4
      Number of AO shells:              46
      Number of SO shells:              37
      Number of primitives:             82
      Number of atomic orbitals:       160
      Number of basis functions:       138

      Number of irreps:                  4
      Integral cutoff                 0.00e+00
      Number of functions per irrep: [  54   17   29   38 ]

 OEINTS: Overlap, kinetic, potential, dipole, and quadrupole integrals
         stored in file 35.

      Computing two-electron integrals...done
      Computed 11531514 non-zero two-electron integrals.
        Stored in file 33.

*** tstart() called on c1-11.compute.lan
*** at Wed Mar 10 09:49:38 2021

	Wfn Parameters:
	--------------------
	Wavefunction         = CCSD_T
	Number of irreps     = 4
	Number of MOs        = 138
	Number of active MOs = 136
	AO-Basis             = NONE
	Semicanonical        = false
	Reference            = UHF
	Print Level          = 1

	IRREP	# MOs	# FZDC	# DOCC	# SOCC	# VIRT	# FZVR
	-----	-----	------	------	------	------	------
	 A1	   54	    2	    4	    0	    48	    0
	 A2	   17	    0	    0	    0	    17	    0
	 B1	   29	    0	    1	    1	    27	    0
	 B2	   38	    0	    1	    1	    36	    0
	Transforming integrals...
	IWL integrals will be deleted.
	(OO|OO)...
	Presorting SO-basis two-electron integrals.
	Sorting File: SO Ints (nn|nn) nbuckets = 1
	Transforming the one-electron integrals and constructing Fock matrices
	Starting AA/AB first half-transformation.
	Sorting AA/AB half-transformed integrals.
	Starting BB first half-transformation.
	Sorting BB half-transformed integrals.
	First half integral transformation complete.
	Starting AA second half-transformation.
	Starting AB second half-transformation.
	Starting BB second half-transformation.
	Two-electron integral transformation complete.
	(OO|OV)...
	Starting AA second half-transformation.
	Starting AB second half-transformation.
	Starting BB second half-transformation.
	Two-electron integral transformation complete.
	(OO|VV)...
	Starting AA second half-transformation.
	Starting AB second half-transformation.
	Starting BB second half-transformation.
	Two-electron integral transformation complete.
	(OV|OO)...
	Starting AA/AB first half-transformation.
	Sorting AA/AB half-transformed integrals.
	Starting BB first half-transformation.
	Sorting BB half-transformed integrals.
	First half integral transformation complete.
	Starting AA second half-transformation.
	Starting AB second half-transformation.
	Starting BB second half-transformation.
	Two-electron integral transformation complete.
	(OV|OV)...
	Starting AA second half-transformation.
	Starting AB second half-transformation.
	Starting BB second half-transformation.
	Two-electron integral transformation complete.
	(OV|VV)...
	Starting AA second half-transformation.
	Starting AB second half-transformation.
	Starting BB second half-transformation.
	Two-electron integral transformation complete.
	(VV|OO)...
	Starting AA/AB first half-transformation.
	Sorting AA/AB half-transformed integrals.
	Starting BB first half-transformation.
	Sorting BB half-transformed integrals.
	First half integral transformation complete.
	Starting AA second half-transformation.
	Starting AB second half-transformation.
	Starting BB second half-transformation.
	Two-electron integral transformation complete.
	(VV|OV)...
	Starting AA second half-transformation.
	Starting AB second half-transformation.
	Starting BB second half-transformation.
	Two-electron integral transformation complete.
	(VV|VV)...
	Starting AA second half-transformation.
	Starting AB second half-transformation.
	Starting BB second half-transformation.
	Two-electron integral transformation complete.
	Frozen core energy     =   -125.46043444864071

	Size of irrep 0 of <AB|CD> integrals:      5.040 (MW) /     40.320 (MB)
	Size of irrep 1 of <AB|CD> integrals:      3.197 (MW) /     25.576 (MB)
	Size of irrep 2 of <AB|CD> integrals:      3.640 (MW) /     29.124 (MB)
	Size of irrep 3 of <AB|CD> integrals:      4.783 (MW) /     38.264 (MB)
	Total:                                    16.660 (MW) /    133.283 (MB)

	Size of irrep 0 of <ab|cd> integrals:      5.327 (MW) /     42.615 (MB)
	Size of irrep 1 of <ab|cd> integrals:      3.430 (MW) /     27.439 (MB)
	Size of irrep 2 of <ab|cd> integrals:      3.893 (MW) /     31.142 (MB)
	Size of irrep 3 of <ab|cd> integrals:      5.072 (MW) /     40.572 (MB)
	Total:                                    17.721 (MW) /    141.768 (MB)

	Size of irrep 0 of <Ab|Cd> integrals:     21.912 (MW) /    175.294 (MB)
	Size of irrep 1 of <Ab|Cd> integrals:     13.242 (MW) /    105.939 (MB)
	Size of irrep 2 of <Ab|Cd> integrals:     15.062 (MW) /    120.497 (MB)
	Size of irrep 3 of <Ab|Cd> integrals:     19.705 (MW) /    157.638 (MB)
	Total:                                    69.921 (MW) /    559.368 (MB)

	Size of irrep 0 of <IA|BC> integrals:      1.469 (MW) /     11.748 (MB)
	Size of irrep 1 of <IA|BC> integrals:      0.694 (MW) /      5.550 (MB)
	Size of irrep 2 of <IA|BC> integrals:      0.908 (MW) /      7.266 (MB)
	Size of irrep 3 of <IA|BC> integrals:      1.198 (MW) /      9.588 (MB)
	Total:                                     4.269 (MW) /     34.152 (MB)

	Size of irrep 0 of <ia|bc> integrals:      1.220 (MW) /      9.758 (MB)
	Size of irrep 1 of <ia|bc> integrals:      0.493 (MW) /      3.941 (MB)
	Size of irrep 2 of <ia|bc> integrals:      0.698 (MW) /      5.588 (MB)
	Size of irrep 3 of <ia|bc> integrals:      0.959 (MW) /      7.675 (MB)
	Total:                                     3.370 (MW) /     26.961 (MB)

	Size of irrep 0 of <Ia|Bc> integrals:      1.507 (MW) /     12.058 (MB)
	Size of irrep 1 of <Ia|Bc> integrals:      0.721 (MW) /      5.764 (MB)
	Size of irrep 2 of <Ia|Bc> integrals:      0.939 (MW) /      7.514 (MB)
	Size of irrep 3 of <Ia|Bc> integrals:      1.234 (MW) /      9.872 (MB)
	Total:                                     4.401 (MW) /     35.208 (MB)

	Size of irrep 0 of <iA|bC> integrals:      1.194 (MW) /      9.549 (MB)
	Size of irrep 1 of <iA|bC> integrals:      0.477 (MW) /      3.814 (MB)
	Size of irrep 2 of <iA|bC> integrals:      0.671 (MW) /      5.371 (MB)
	Size of irrep 3 of <iA|bC> integrals:      0.928 (MW) /      7.422 (MB)
	Total:                                     3.270 (MW) /     26.156 (MB)

	Size of irrep 0 of tIjAb amplitudes:       0.094 (MW) /      0.749 (MB)
	Size of irrep 1 of tIjAb amplitudes:       0.015 (MW) /      0.116 (MB)
	Size of irrep 2 of tIjAb amplitudes:       0.047 (MW) /      0.373 (MB)
	Size of irrep 3 of tIjAb amplitudes:       0.053 (MW) /      0.426 (MB)
	Total:                                     0.208 (MW) /      1.664 (MB)

	Nuclear Rep. energy          =     21.93527709654080
	SCF energy                   =   -150.87364237233567
	One-electron energy          =    -83.24744195473278
	Two-electron (AA) energy     =      9.94620079905287
	Two-electron (BB) energy     =      5.29320033826308
	Two-electron (AB) energy     =     20.65955579717993
	Two-electron energy          =     35.89895693449587
	Reference energy             =   -150.87364237233680

*** tstop() called on c1-11.compute.lan at Wed Mar 10 09:50:05 2021
Module time:
	user time   =     113.31 seconds =       1.89 minutes
	system time =      17.96 seconds =       0.30 minutes
	total time  =         27 seconds =       0.45 minutes
Total time:
	user time   =     159.75 seconds =       2.66 minutes
	system time =      21.11 seconds =       0.35 minutes
	total time  =         36 seconds =       0.60 minutes
            **************************
            *                        *
            *        CCENERGY        *
            *                        *
            **************************

    Nuclear Rep. energy (wfn)     =   21.935277096540801
    SCF energy          (wfn)     = -150.873642372335667
    Reference energy    (file100) = -150.873642372336803

    Input parameters:
    -----------------
    Wave function   =     CCSD_T
    Reference wfn   =     UHF
    Brueckner       =     No
    Memory (Mbytes) =     4000.0
    Maxiter         =     50
    R_Convergence   =     1.0e-10
    E_Convergence   =     1.0e-10
    Restart         =     Yes
    DIIS            =     Yes
    AO Basis        =     NONE
    ABCD            =     NEW
    Cache Level     =     2
    Cache Type      =     LRU
    Print Level     =     1
    Num. of threads =     12
    # Amps to Print =     10
    Print MP2 Amps? =     No
    Analyze T2 Amps =     No
    Print Pair Ener =     No
    Local CC        =     No
    SCS-MP2         =     False
    SCSN-MP2        =     False
    SCS-CCSD        =     False

MP2 correlation energy -0.4156745860141458
                Solving CC Amplitude Equations
                ------------------------------
  Iter             Energy              RMS        T1Diag      D1Diag    New D1Diag    D2Diag
  ----     ---------------------    ---------   ----------  ----------  ----------   --------
     0        -0.415674586014146    0.000e+00    0.000000    0.000000    0.000000    0.000000
     1        -0.426543973788522    5.635e-02    0.010355    0.000000    0.000000    0.000000
     2        -0.434628137769668    1.678e-02    0.010857    0.000000    0.000000    0.000000
     3        -0.436724570540114    8.402e-03    0.012671    0.000000    0.000000    0.000000
     4        -0.436600671647975    2.491e-03    0.013015    0.000000    0.000000    0.000000
     5        -0.436588665926505    1.258e-03    0.013157    0.000000    0.000000    0.000000
     6        -0.436614126537342    4.981e-04    0.013171    0.000000    0.000000    0.000000
     7        -0.436618248694864    2.243e-04    0.013160    0.000000    0.000000    0.000000
     8        -0.436618995405464    6.816e-05    0.013154    0.000000    0.000000    0.000000
     9        -0.436620209336369    2.782e-05    0.013154    0.000000    0.000000    0.000000
    10        -0.436619039125298    1.052e-05    0.013154    0.000000    0.000000    0.000000
    11        -0.436619149007412    5.187e-06    0.013154    0.000000    0.000000    0.000000
    12        -0.436619109934734    2.523e-06    0.013154    0.000000    0.000000    0.000000
    13        -0.436619103246924    1.353e-06    0.013154    0.000000    0.000000    0.000000
    14        -0.436619129968086    6.361e-07    0.013154    0.000000    0.000000    0.000000
    15        -0.436619128586156    1.721e-07    0.013154    0.000000    0.000000    0.000000
    16        -0.436619128450046    1.051e-07    0.013154    0.000000    0.000000    0.000000
    17        -0.436619129243119    2.975e-08    0.013154    0.000000    0.000000    0.000000
    18        -0.436619128822744    1.370e-08    0.013154    0.000000    0.000000    0.000000

      * MP2 total energy                      = -151.289316958350952
      * CCSD total energy                     = -151.310261500886156
      * CCSD(T) total energy                     = -151.322473879877776
*** Psi4 exiting successfully. Buy a developer a beer!
