                               Psi4 1.3.2 release

  ==> Input File <==

--------------------------------------------------------------------------
memory 4 GB

molecule  {
0 3
O    0.000000000000    0.000000000000    1.259811948868
H    0.000000000000   -0.760493697200    1.846662579950
H   -0.000000000000    0.760493697200    1.846662579950
O    0.000000000000    0.000000000000   -1.492525010291
}
set {
basis aug-cc-pvtz
reference uhf
e_convergence 10
scf_type pk
freeze_core true
}

set ccenergy {
e_convergence 10
r_convergence 10
}

e = energy('ccsd(t)')

print_out('Stephenergy {}'.format(e))

--------------------------------------------------------------------------

    Molecular point group: c2v

    Geometry (in Angstrom), charge = 0, multiplicity = 3:

       Center              X                  Y                   Z               Mass
    ------------   -----------------  -----------------  -----------------  -----------------
         O            0.000000000000     0.000000000000     1.259811948868    15.994914619570
         H            0.000000000000    -0.760493697200     1.846662579950     1.007825032230
         H           -0.000000000000     0.760493697200     1.846662579950     1.007825032230
         O            0.000000000000     0.000000000000    -1.492525010291    15.994914619570

  Charge       = 0
  Multiplicity = 3
  Basis Set: AUG-CC-PVTZ
    Blend: AUG-CC-PVTZ

    Orbital Energies [Eh]
    ---------------------

    Alpha Occupied:

       1A1   -20.684092     2A1   -20.570960     3A1    -1.393598
       4A1    -1.355696     1B2    -0.719923     5A1    -0.688117
       1B1    -0.684861     6A1    -0.585953     2B2    -0.585871
       2B1    -0.514083

    Alpha Virtual:

       7A1     0.029594     3B2     0.047657     8A1     0.118287
       3B1     0.154150     9A1     0.159532     4B2     0.180239
       5B2     0.187220     4B1     0.192791    10A1     0.198090
       1A2     0.263571     6B2     0.264589    11A1     0.265404
      12A1     0.314490     5B1     0.327438    13A1     0.376069
       7B2     0.380317    14A1     0.449974     8B2     0.464479
       9B2     0.600290     6B1     0.643926    15A1     0.647634
       2A2     0.658245    16A1     0.667126    17A1     0.699198
       3A2     0.721498    10B2     0.724347     7B1     0.769020
      18A1     0.793102    19A1     0.820291     8B1     0.837566
      20A1     0.860449     9B1     0.901407    11B2     0.918699
       4A2     0.925022    12B2     0.946668    13B2     0.981419
      21A1     0.992049    10B1     1.015622    22A1     1.047179
      14B2     1.051798    11B1     1.124161     5A2     1.176793
      23A1     1.192100    15B2     1.200953    16B2     1.330293
      24A1     1.334785    25A1     1.453134     6A2     1.507711
      12B1     1.596283    26A1     1.669925    27A1     1.811510
      17B2     1.820585    18B2     1.978391    28A1     2.041083
      13B1     2.048438    19B2     2.054445     7A2     2.058190
      14B1     2.059289    29A1     2.079264    30A1     2.115094
       8A2     2.119400    20B2     2.138259    31A1     2.142842
      15B1     2.147895    32A1     2.253075    21B2     2.273222
      16B1     2.302728     9A2     2.311964    17B1     2.438085
      33A1     2.475494    22B2     2.481180    34A1     2.491648
      35A1     2.698717    18B1     2.717024    23B2     2.722348
      36A1     2.844116    24B2     2.863445    10A2     2.880444
      25B2     3.694288    37A1     3.756736    11A2     4.012801
      19B1     4.080653    20B1     4.100240    38A1     4.145337
      26B2     4.184824    27B2     4.282558    21B1     4.293260
      39A1     4.356507    12A2     4.382807    40A1     4.431418
      22B1     4.454247    28B2     4.514286    41A1     4.792207
      29B2     4.840208    30B2     5.140236    13A2     5.147514
      31B2     5.252844    42A1     5.343901    23B1     5.517608
      43A1     5.691398    44A1     6.198025    24B1     6.390635
      14A2     6.411002    45A1     6.411238    32B2     6.424305
      25B1     6.436098    33B2     6.491422    46A1     6.541830
      34B2     6.581777    26B1     6.718779    27B1     6.903909
      47A1     6.907810    15A2     6.925051    48A1     6.943495
      35B2     6.987013    49A1     7.046145    28B1     7.136458
      29B1     7.279643    16A2     7.307089    36B2     7.315871
      17A2     7.353313    50A1     7.435973    51A1     7.546405
      52A1     7.914676    37B2     7.916264    38B2     8.808176
      53A1     8.883248    54A1    15.806498

    Beta Occupied:

       1A1   -20.605211     2A1   -20.570461     3A1    -1.354973
       4A1    -1.050765     1B2    -0.719569     5A1    -0.587877
       1B1    -0.513372     2B2    -0.495271

    Beta Virtual:

       6A1     0.029436     3B2     0.047740     2B1     0.086789
       7A1     0.092060     8A1     0.141270     9A1     0.167005
       3B1     0.170632     4B2     0.180827     5B2     0.190866
      10A1     0.225636     4B1     0.253495     1A2     0.263573
       6B2     0.265025    11A1     0.288718    12A1     0.316964
       5B1     0.328711     7B2     0.380487    13A1     0.386532
      14A1     0.451024     8B2     0.464686     9B2     0.601950
      15A1     0.660246     6B1     0.667686     2A2     0.672615
      16A1     0.674153    17A1     0.716476     3A2     0.721986
      10B2     0.736509     7B1     0.780562    18A1     0.807391
       8B1     0.846933    19A1     0.851606     4A2     0.925437
      20A1     0.927966    11B2     0.936562    12B2     0.953483
      13B2     0.985326     9B1     0.987679    21A1     0.999151
      14B2     1.052903    22A1     1.053737    10B1     1.061406
      11B1     1.141059     5A2     1.176994    23A1     1.193563
      15B2     1.203628    16B2     1.332752    24A1     1.391370
      25A1     1.491330     6A2     1.508151    12B1     1.598275
      26A1     1.700630    27A1     1.816829    17B2     1.820908
      18B2     1.979910    28A1     2.070592    13B1     2.071141
      19B2     2.071841     7A2     2.082875    29A1     2.099457
      14B1     2.101474    30A1     2.156343    20B2     2.185276
       8A2     2.202552    31A1     2.209391    15B1     2.260351
      32A1     2.311418     9A2     2.312092    16B1     2.317859
      21B2     2.323742    17B1     2.446730    33A1     2.483186
      22B2     2.483999    34A1     2.524917    35A1     2.705827
      18B1     2.718804    23B2     2.723267    36A1     2.856622
      24B2     2.863577    10A2     2.880482    25B2     3.695230
      37A1     3.756873    11A2     4.012832    19B1     4.083102
      38A1     4.177821    26B2     4.220053    20B1     4.260617
      27B2     4.293739    21B1     4.297643    12A2     4.382920
      39A1     4.427360    22B1     4.459592    40A1     4.474993
      28B2     4.514381    41A1     4.803608    29B2     4.840373
      30B2     5.140434    13A2     5.147595    31B2     5.253309
      42A1     5.344532    23B1     5.517727    43A1     5.696334
      44A1     6.199599    24B1     6.486117    14A2     6.487829
      32B2     6.488177    45A1     6.494641    25B1     6.500237
      33B2     6.526465    34B2     6.610555    46A1     6.613408
      26B1     6.726443    47A1     6.961206    15A2     7.038601
      48A1     7.042668    27B1     7.086461    35B2     7.098859
      28B1     7.136877    49A1     7.173499    29B1     7.283757
      16A2     7.307383    36B2     7.316075    17A2     7.353747
      50A1     7.438805    51A1     7.547493    52A1     7.915282
      37B2     7.916636    38B2     8.808573    53A1     8.962424
      54A1    15.806841

    Final Occupation by Irrep:
             A1    A2    B1    B2
    DOCC [     5,    0,    1,    2 ]
    SOCC [     1,    0,    1,    0 ]

  @UHF Final Energy:  -150.87354716863672

   => Energetics <=

    Nuclear Repulsion Energy =             23.9392968283771239
    One-Electron Energy =                -255.9450359788563105
    Two-Electron Energy =                  81.1321919818424817
    Total Energy =                       -150.8735471686367191

  UHF NO Occupations:
  HONO-2 :    5 A1 1.9970482
  HONO-1 :    2 B1 1.0000000
  HONO-0 :    6 A1 1.0000000
  LUNO+0 :    7 A1 0.0029518
  LUNO+1 :    3 B2 0.0017987
  LUNO+2 :    8 A1 0.0000241
  LUNO+3 :    9 A1 0.0000024

Computation Completed

Properties will be evaluated at   0.000000,   0.000000,   0.000000 [a0]

Properties computed using the SCF density matrix

  Nuclear Dipole Moment: [e a0]
     X:     0.0000      Y:     0.0000      Z:     3.4613

  Electronic Dipole Moment: [e a0]
     X:     0.0000      Y:     0.0000      Z:    -2.6257

  Dipole Moment: [e a0]
     X:     0.0000      Y:     0.0000      Z:     0.8356     Total:     0.8356

  Dipole Moment: [D]
     X:     0.0000      Y:     0.0000      Z:     2.1238     Total:     2.1238

*** tstop() called on c2-24.compute.lan at Mon Mar  8 17:28:44 2021
Module time:
	user time   =      38.59 seconds =       0.64 minutes
	system time =       1.66 seconds =       0.03 minutes
	total time  =          4 seconds =       0.07 minutes
Total time:
	user time   =      38.59 seconds =       0.64 minutes
	system time =       1.66 seconds =       0.03 minutes
	total time  =          4 seconds =       0.07 minutes
 MINTS: Wrapper to libmints.
   by Justin Turney

   Calculation information:
      Number of threads:                12
      Number of atoms:                   4
      Number of AO shells:              46
      Number of SO shells:              37
      Number of primitives:             82
      Number of atomic orbitals:       160
      Number of basis functions:       138

      Number of irreps:                  4
      Integral cutoff                 0.00e+00
      Number of functions per irrep: [  54   17   29   38 ]

 OEINTS: Overlap, kinetic, potential, dipole, and quadrupole integrals
         stored in file 35.

      Computing two-electron integrals...done
      Computed 11327499 non-zero two-electron integrals.
        Stored in file 33.

*** tstart() called on c2-24.compute.lan
*** at Mon Mar  8 17:28:47 2021

	Wfn Parameters:
	--------------------
	Wavefunction         = CCSD_T
	Number of irreps     = 4
	Number of MOs        = 138
	Number of active MOs = 136
	AO-Basis             = NONE
	Semicanonical        = false
	Reference            = UHF
	Print Level          = 1

	IRREP	# MOs	# FZDC	# DOCC	# SOCC	# VIRT	# FZVR
	-----	-----	------	------	------	------	------
	 A1	   54	    2	    3	    1	    48	    0
	 A2	   17	    0	    0	    0	    17	    0
	 B1	   29	    0	    1	    1	    27	    0
	 B2	   38	    0	    2	    0	    36	    0
	Transforming integrals...
	IWL integrals will be deleted.
	(OO|OO)...
	Presorting SO-basis two-electron integrals.
	Sorting File: SO Ints (nn|nn) nbuckets = 1
	Transforming the one-electron integrals and constructing Fock matrices
	Starting AA/AB first half-transformation.
	Sorting AA/AB half-transformed integrals.
	Starting BB first half-transformation.
	Sorting BB half-transformed integrals.
	First half integral transformation complete.
	Starting AA second half-transformation.
	Starting AB second half-transformation.
	Starting BB second half-transformation.
	Two-electron integral transformation complete.
	(OO|OV)...
	Starting AA second half-transformation.
	Starting AB second half-transformation.
	Starting BB second half-transformation.
	Two-electron integral transformation complete.
	(OO|VV)...
	Starting AA second half-transformation.
	Starting AB second half-transformation.
	Starting BB second half-transformation.
	Two-electron integral transformation complete.
	(OV|OO)...
	Starting AA/AB first half-transformation.
	Sorting AA/AB half-transformed integrals.
	Starting BB first half-transformation.
	Sorting BB half-transformed integrals.
	First half integral transformation complete.
	Starting AA second half-transformation.
	Starting AB second half-transformation.
	Starting BB second half-transformation.
	Two-electron integral transformation complete.
	(OV|OV)...
	Starting AA second half-transformation.
	Starting AB second half-transformation.
	Starting BB second half-transformation.
	Two-electron integral transformation complete.
	(OV|VV)...
	Starting AA second half-transformation.
	Starting AB second half-transformation.
	Starting BB second half-transformation.
	Two-electron integral transformation complete.
	(VV|OO)...
	Starting AA/AB first half-transformation.
	Sorting AA/AB half-transformed integrals.
	Starting BB first half-transformation.
	Sorting BB half-transformed integrals.
	First half integral transformation complete.
	Starting AA second half-transformation.
	Starting AB second half-transformation.
	Starting BB second half-transformation.
	Two-electron integral transformation complete.
	(VV|OV)...
	Starting AA second half-transformation.
	Starting AB second half-transformation.
	Starting BB second half-transformation.
	Two-electron integral transformation complete.
	(VV|VV)...
	Starting AA second half-transformation.
	Starting AB second half-transformation.
	Starting BB second half-transformation.
	Two-electron integral transformation complete.
	Frozen core energy     =   -126.41578078227806

	Size of irrep 0 of <AB|CD> integrals:      5.040 (MW) /     40.320 (MB)
	Size of irrep 1 of <AB|CD> integrals:      3.197 (MW) /     25.576 (MB)
	Size of irrep 2 of <AB|CD> integrals:      3.640 (MW) /     29.124 (MB)
	Size of irrep 3 of <AB|CD> integrals:      4.783 (MW) /     38.264 (MB)
	Total:                                    16.660 (MW) /    133.283 (MB)

	Size of irrep 0 of <ab|cd> integrals:      5.382 (MW) /     43.059 (MB)
	Size of irrep 1 of <ab|cd> integrals:      3.389 (MW) /     27.114 (MB)
	Size of irrep 2 of <ab|cd> integrals:      3.936 (MW) /     31.490 (MB)
	Size of irrep 3 of <ab|cd> integrals:      5.018 (MW) /     40.141 (MB)
	Total:                                    17.726 (MW) /    141.804 (MB)

	Size of irrep 0 of <Ab|Cd> integrals:     22.024 (MW) /    176.194 (MB)
	Size of irrep 1 of <Ab|Cd> integrals:     13.170 (MW) /    105.357 (MB)
	Size of irrep 2 of <Ab|Cd> integrals:     15.140 (MW) /    121.119 (MB)
	Size of irrep 3 of <Ab|Cd> integrals:     19.598 (MW) /    156.787 (MB)
	Total:                                    69.932 (MW) /    559.457 (MB)

	Size of irrep 0 of <IA|BC> integrals:      1.469 (MW) /     11.748 (MB)
	Size of irrep 1 of <IA|BC> integrals:      0.694 (MW) /      5.550 (MB)
	Size of irrep 2 of <IA|BC> integrals:      0.908 (MW) /      7.266 (MB)
	Size of irrep 3 of <IA|BC> integrals:      1.198 (MW) /      9.588 (MB)
	Total:                                     4.269 (MW) /     34.152 (MB)

	Size of irrep 0 of <ia|bc> integrals:      1.178 (MW) /      9.426 (MB)
	Size of irrep 1 of <ia|bc> integrals:      0.527 (MW) /      4.212 (MB)
	Size of irrep 2 of <ia|bc> integrals:      0.663 (MW) /      5.301 (MB)
	Size of irrep 3 of <ia|bc> integrals:      0.999 (MW) /      7.992 (MB)
	Total:                                     3.366 (MW) /     26.931 (MB)

	Size of irrep 0 of <Ia|Bc> integrals:      1.521 (MW) /     12.164 (MB)
	Size of irrep 1 of <Ia|Bc> integrals:      0.711 (MW) /      5.690 (MB)
	Size of irrep 2 of <Ia|Bc> integrals:      0.949 (MW) /      7.595 (MB)
	Size of irrep 3 of <Ia|Bc> integrals:      1.222 (MW) /      9.775 (MB)
	Total:                                     4.403 (MW) /     35.225 (MB)

	Size of irrep 0 of <iA|bC> integrals:      1.140 (MW) /      9.123 (MB)
	Size of irrep 1 of <iA|bC> integrals:      0.512 (MW) /      4.094 (MB)
	Size of irrep 2 of <iA|bC> integrals:      0.634 (MW) /      5.074 (MB)
	Size of irrep 3 of <iA|bC> integrals:      0.978 (MW) /      7.827 (MB)
	Total:                                     3.265 (MW) /     26.118 (MB)

	Size of irrep 0 of tIjAb amplitudes:       0.084 (MW) /      0.676 (MB)
	Size of irrep 1 of tIjAb amplitudes:       0.022 (MW) /      0.174 (MB)
	Size of irrep 2 of tIjAb amplitudes:       0.039 (MW) /      0.311 (MB)
	Size of irrep 3 of tIjAb amplitudes:       0.062 (MW) /      0.496 (MB)
	Total:                                     0.207 (MW) /      1.657 (MB)

	Nuclear Rep. energy          =     23.93929682837712
	SCF energy                   =   -150.87354716863672
	One-electron energy          =    -85.54419755438448
	Two-electron (AA) energy     =     10.38613868597227
	Two-electron (BB) energy     =      5.47782067215496
	Two-electron (AB) energy     =     21.28317498151993
	Two-electron energy          =     37.14713433964717
	Reference energy             =   -150.87354716863825

*** tstop() called on c2-24.compute.lan at Mon Mar  8 17:29:20 2021
Module time:
	user time   =     236.91 seconds =       3.95 minutes
	system time =      13.65 seconds =       0.23 minutes
	total time  =         33 seconds =       0.55 minutes
Total time:
	user time   =     281.77 seconds =       4.70 minutes
	system time =      15.89 seconds =       0.26 minutes
	total time  =         40 seconds =       0.67 minutes
            **************************
            *                        *
            *        CCENERGY        *
            *                        *
            **************************

    Nuclear Rep. energy (wfn)     =   23.939296828377124
    SCF energy          (wfn)     = -150.873547168636719
    Reference energy    (file100) = -150.873547168638254

    Input parameters:
    -----------------
    Wave function   =     CCSD_T
    Reference wfn   =     UHF
    Brueckner       =     No
    Memory (Mbytes) =     4000.0
    Maxiter         =     50
    R_Convergence   =     1.0e-10
    E_Convergence   =     1.0e-10
    Restart         =     Yes
    DIIS            =     Yes
    AO Basis        =     NONE
    ABCD            =     NEW
    Cache Level     =     2
    Cache Type      =     LRU
    Print Level     =     1
    Num. of threads =     12
    # Amps to Print =     10
    Print MP2 Amps? =     No
    Analyze T2 Amps =     No
    Print Pair Ener =     No
    Local CC        =     No
    SCS-MP2         =     False
    SCSN-MP2        =     False
    SCS-CCSD        =     False

MP2 correlation energy -0.4162331782843547
                Solving CC Amplitude Equations
                ------------------------------
  Iter             Energy              RMS        T1Diag      D1Diag    New D1Diag    D2Diag
  ----     ---------------------    ---------   ----------  ----------  ----------   --------
     0        -0.416233178284355    0.000e+00    0.000000    0.000000    0.000000    0.000000
     1        -0.427037896537198    5.696e-02    0.010585    0.000000    0.000000    0.000000
     2        -0.435126865487958    1.702e-02    0.011085    0.000000    0.000000    0.000000
     3        -0.437276609773701    8.793e-03    0.013014    0.000000    0.000000    0.000000
     4        -0.437149909664999    2.695e-03    0.013429    0.000000    0.000000    0.000000
     5        -0.437140468589370    1.406e-03    0.013627    0.000000    0.000000    0.000000
     6        -0.437169840535782    5.315e-04    0.013655    0.000000    0.000000    0.000000
     7        -0.437172829113148    2.159e-04    0.013650    0.000000    0.000000    0.000000
     8        -0.437173741357469    6.678e-05    0.013645    0.000000    0.000000    0.000000
     9        -0.437174434787530    2.401e-05    0.013645    0.000000    0.000000    0.000000
    10        -0.437173526038000    9.236e-06    0.013645    0.000000    0.000000    0.000000
    11        -0.437173691046139    4.050e-06    0.013644    0.000000    0.000000    0.000000
    12        -0.437173651384196    1.477e-06    0.013645    0.000000    0.000000    0.000000
    13        -0.437173659714574    7.481e-07    0.013645    0.000000    0.000000    0.000000
    14        -0.437173682984315    3.144e-07    0.013645    0.000000    0.000000    0.000000
    15        -0.437173684629691    1.138e-07    0.013645    0.000000    0.000000    0.000000
    16        -0.437173685264148    5.204e-08    0.013645    0.000000    0.000000    0.000000
    17        -0.437173685820972    1.981e-08    0.013645    0.000000    0.000000    0.000000
    18        -0.437173685662657    1.060e-08    0.013645    0.000000    0.000000    0.000000

      * MP2 total energy                      = -151.289780346922612
      * CCSD total energy                     = -151.310720854031217
      * CCSD(T) total energy                     = -151.323011484307330
*** Psi4 exiting successfully. Buy a developer a beer!
