                               Psi4 1.3.2 release

  ==> Input File <==

--------------------------------------------------------------------------
memory 4 GB

molecule  {
0 3
O   -1.496507563314   -0.004847340589    0.000000000000
H   -0.544109223614    0.143144826111    0.000000000000
H   -1.878561057733    0.878776689683    0.000000000000
O    1.649157815750   -0.059543005286    0.000000000000
}
set {
basis aug-cc-pvtz
reference uhf
e_convergence 10
scf_type pk
freeze_core true
}

set ccenergy {
e_convergence 10
r_convergence 10
}

e = energy('ccsd(t)')

print_out('Stephenergy {}'.format(e))

--------------------------------------------------------------------------

    Molecular point group: cs

    Geometry (in Angstrom), charge = 0, multiplicity = 3:

       Center              X                  Y                   Z               Mass
    ------------   -----------------  -----------------  -----------------  -----------------
         O           -1.496507563314    -0.004847340589     0.000000000000    15.994914619570
         H           -0.544109223614     0.143144826111     0.000000000000     1.007825032230
         H           -1.878561057733     0.878776689683     0.000000000000     1.007825032230
         O            1.649157815750    -0.059543005286     0.000000000000    15.994914619570

  Charge       = 0
  Multiplicity = 3
  Basis Set: AUG-CC-PVTZ
    Blend: AUG-CC-PVTZ

    Orbital Energies [Eh]
    ---------------------

    Alpha Occupied:

       1Ap   -20.733648     2Ap   -20.558575     3Ap    -1.443047
       4Ap    -1.342029     5Ap    -0.733754     1App   -0.733385
       6Ap    -0.709761     7Ap    -0.634960     8Ap    -0.574270
       2App   -0.501498

    Alpha Virtual:

       9Ap     0.034268    10Ap     0.053446    11Ap     0.128023
       3App    0.132749    12Ap     0.148128    13Ap     0.160795
      14Ap     0.183932     4App    0.187047    15Ap     0.214461
      16Ap     0.242237    17Ap     0.265125     5App    0.286246
      18Ap     0.303398     6App    0.321356    19Ap     0.365629
      20Ap     0.405965    21Ap     0.460571    22Ap     0.568177
       7App    0.602118    23Ap     0.608586    24Ap     0.628566
      25Ap     0.679563     8App    0.711937    26Ap     0.714795
       9App    0.736725    10App    0.748624    27Ap     0.753644
      28Ap     0.813339    11App    0.825901    29Ap     0.836546
      12App    0.890882    30Ap     0.891140    31Ap     0.924272
      32Ap     0.946196    13App    0.947828    33Ap     0.951768
      14App    0.973477    34Ap     0.979437    35Ap     1.043373
      36Ap     1.133741    15App    1.156669    37Ap     1.169946
      38Ap     1.189051    39Ap     1.263753    16App    1.297003
      40Ap     1.320960    17App    1.527589    41Ap     1.586450
      18App    1.598672    42Ap     1.716771    43Ap     1.812195
      44Ap     1.843855    45Ap     1.976955    19App    1.977237
      46Ap     1.977441    20App    2.013062    47Ap     2.017741
      21App    2.050282    48Ap     2.062574    22App    2.125501
      49Ap     2.156064    50Ap     2.178415    23App    2.216772
      24App    2.303058    51Ap     2.312501    52Ap     2.342201
      53Ap     2.417016    25App    2.445039    54Ap     2.459433
      55Ap     2.498359    26App    2.531339    56Ap     2.638668
      57Ap     2.712527    27App    2.728829    58Ap     2.739660
      59Ap     2.861479    60Ap     2.933047    28App    2.943752
      61Ap     3.696458    62Ap     3.897798    29App    4.035925
      30App    4.062565    63Ap     4.074792    31App    4.179199
      64Ap     4.209359    65Ap     4.264993    32App    4.302278
      33App    4.391096    66Ap     4.407910    34App    4.430175
      67Ap     4.443093    68Ap     4.601055    69Ap     4.777953
      70Ap     4.958268    35App    5.152865    71Ap     5.168448
      72Ap     5.298872    73Ap     5.385236    36App    5.522094
      74Ap     5.690483    75Ap     6.187223    37App    6.311796
      76Ap     6.311828    38App    6.376094    77Ap     6.378942
      39App    6.523641    78Ap     6.523971    79Ap     6.562147
      80Ap     6.642545    40App    6.735504    81Ap     6.813966
      41App    6.819835    82Ap     6.919999    42App    6.937227
      83Ap     6.962712    84Ap     7.051580    43App    7.148091
      44App    7.271676    45App    7.323492    85Ap     7.324584
      86Ap     7.363518    46App    7.438563    87Ap     7.648023
      88Ap     7.945472    89Ap     7.959450    90Ap     8.804213
      91Ap     9.544910    92Ap    16.305999

    Beta Occupied:

       1Ap   -20.654860     2Ap   -20.558713     3Ap    -1.342643
       4Ap    -1.100593     5Ap    -0.708798     6Ap    -0.579780
       7Ap    -0.541395     1App   -0.501544

    Beta Virtual:

       8Ap     0.034380     2App    0.048980     9Ap     0.049166
      10Ap     0.055225    11Ap     0.144035    12Ap     0.152655
       3App    0.161221    13Ap     0.178183    14Ap     0.207904
      15Ap     0.225217     4App    0.226963    16Ap     0.251096
      17Ap     0.266381     5App    0.286461    18Ap     0.305565
       6App    0.325356    19Ap     0.369581    20Ap     0.417178
      21Ap     0.461856    22Ap     0.571819    23Ap     0.629060
       7App    0.634476    24Ap     0.640574    25Ap     0.684201
      26Ap     0.715419     8App    0.723783     9App    0.740062
      10App    0.750413    27Ap     0.770977    28Ap     0.819662
      29Ap     0.865611    11App    0.869292    30Ap     0.920886
      12App    0.942431    31Ap     0.943013    13App    0.949892
      32Ap     0.953145    33Ap     0.970420    34Ap     1.018537
      14App    1.020862    35Ap     1.046123    15App    1.159937
      36Ap     1.164156    37Ap     1.174476    38Ap     1.215685
      39Ap     1.266849    16App    1.307627    40Ap     1.329864
      17App    1.528315    41Ap     1.588938    18App    1.600196
      42Ap     1.742196    43Ap     1.818012    44Ap     1.855458
      45Ap     1.984733    46Ap     2.015207    19App    2.015213
      20App    2.055431    47Ap     2.067219    21App    2.174663
      48Ap     2.176265    22App    2.179641    49Ap     2.196838
      50Ap     2.247712    23App    2.252830    24App    2.306528
      51Ap     2.318219    52Ap     2.363891    53Ap     2.421134
      25App    2.447664    54Ap     2.460220    55Ap     2.504740
      26App    2.539854    56Ap     2.645844    57Ap     2.727241
      27App    2.730220    58Ap     2.746408    59Ap     2.863355
      60Ap     2.937191    28App    2.944380    61Ap     3.697154
      62Ap     3.900392    29App    4.038197    30App    4.147281
      63Ap     4.192801    64Ap     4.242786    31App    4.263440
      65Ap     4.278827    32App    4.302323    33App    4.391168
      66Ap     4.412458    34App    4.430890    67Ap     4.487032
      68Ap     4.603228    69Ap     4.779450    70Ap     4.960402
      35App    5.152856    71Ap     5.168829    72Ap     5.299121
      73Ap     5.386506    36App    5.522173    74Ap     5.690861
      75Ap     6.188487    76Ap     6.420652    37App    6.420656
      38App    6.451238    77Ap     6.454097    78Ap     6.536267
      39App    6.577395    79Ap     6.605759    80Ap     6.687129
      40App    6.741524    81Ap     6.921506    41App    7.004935
      82Ap     7.006511    42App    7.046349    83Ap     7.069678
      84Ap     7.131343    43App    7.150593    44App    7.271932
      45App    7.324234    85Ap     7.324892    86Ap     7.364201
      46App    7.438984    87Ap     7.648851    88Ap     7.946238
      89Ap     7.959942    90Ap     8.805878    91Ap     9.619829
      92Ap    16.306312

    Final Occupation by Irrep:
             Ap   App
    DOCC [     7,    1 ]
    SOCC [     1,    1 ]

  @UHF Final Energy:  -150.87430875200181

   => Energetics <=

    Nuclear Repulsion Energy =             22.9835442751232719
    One-Electron Energy =                -253.7624549494322821
    Two-Electron Energy =                  79.9046019223072079
    Total Energy =                       -150.8743087520018094

  UHF NO Occupations:
  HONO-2 :    7 Ap 1.9970271
  HONO-1 :    8 Ap 1.0000000
  HONO-0 :    2App 1.0000000
  LUNO+0 :    9 Ap 0.0029729
  LUNO+1 :   10 Ap 0.0017131
  LUNO+2 :   11 Ap 0.0000024
  LUNO+3 :   12 Ap 0.0000019

Computation Completed

Properties will be evaluated at   0.000000,   0.000000,   0.000000 [a0]

Properties computed using the SCF density matrix

  Nuclear Dipole Moment: [e a0]
     X:    -2.2704      Y:     0.9577      Z:     0.0000

  Electronic Dipole Moment: [e a0]
     X:     2.7434      Y:    -0.2861      Z:     0.0000

  Dipole Moment: [e a0]
     X:     0.4730      Y:     0.6717      Z:     0.0000     Total:     0.8215

  Dipole Moment: [D]
     X:     1.2022      Y:     1.7072      Z:     0.0000     Total:     2.0880

*** tstop() called on d2-22.compute.lan at Tue Mar  9 15:24:38 2021
Module time:
	user time   =      55.68 seconds =       0.93 minutes
	system time =       2.86 seconds =       0.05 minutes
	total time  =          6 seconds =       0.10 minutes
Total time:
	user time   =      55.68 seconds =       0.93 minutes
	system time =       2.86 seconds =       0.05 minutes
	total time  =          6 seconds =       0.10 minutes
 MINTS: Wrapper to libmints.
   by Justin Turney

   Calculation information:
      Number of threads:                12
      Number of atoms:                   4
      Number of AO shells:              46
      Number of SO shells:              46
      Number of primitives:             82
      Number of atomic orbitals:       160
      Number of basis functions:       138

      Number of irreps:                  2
      Integral cutoff                 0.00e+00
      Number of functions per irrep: [  92   46 ]

 OEINTS: Overlap, kinetic, potential, dipole, and quadrupole integrals
         stored in file 35.

      Computing two-electron integrals...done
      Computed 22916981 non-zero two-electron integrals.
        Stored in file 33.

*** tstart() called on d2-22.compute.lan
*** at Tue Mar  9 15:24:42 2021

	Wfn Parameters:
	--------------------
	Wavefunction         = CCSD_T
	Number of irreps     = 2
	Number of MOs        = 138
	Number of active MOs = 136
	AO-Basis             = NONE
	Semicanonical        = false
	Reference            = UHF
	Print Level          = 1

	IRREP	# MOs	# FZDC	# DOCC	# SOCC	# VIRT	# FZVR
	-----	-----	------	------	------	------	------
	 Ap	   92	    2	    5	    1	    84	    0
	 App	   46	    0	    1	    1	    44	    0
	Transforming integrals...
	IWL integrals will be deleted.
	(OO|OO)...
	Presorting SO-basis two-electron integrals.
	Sorting File: SO Ints (nn|nn) nbuckets = 1
	Transforming the one-electron integrals and constructing Fock matrices
	Starting AA/AB first half-transformation.
	Sorting AA/AB half-transformed integrals.
	Starting BB first half-transformation.
	Sorting BB half-transformed integrals.
	First half integral transformation complete.
	Starting AA second half-transformation.
	Starting AB second half-transformation.
	Starting BB second half-transformation.
	Two-electron integral transformation complete.
	(OO|OV)...
	Starting AA second half-transformation.
	Starting AB second half-transformation.
	Starting BB second half-transformation.
	Two-electron integral transformation complete.
	(OO|VV)...
	Starting AA second half-transformation.
	Starting AB second half-transformation.
	Starting BB second half-transformation.
	Two-electron integral transformation complete.
	(OV|OO)...
	Starting AA/AB first half-transformation.
	Sorting AA/AB half-transformed integrals.
	Starting BB first half-transformation.
	Sorting BB half-transformed integrals.
	First half integral transformation complete.
	Starting AA second half-transformation.
	Starting AB second half-transformation.
	Starting BB second half-transformation.
	Two-electron integral transformation complete.
	(OV|OV)...
	Starting AA second half-transformation.
	Starting AB second half-transformation.
	Starting BB second half-transformation.
	Two-electron integral transformation complete.
	(OV|VV)...
	Starting AA second half-transformation.
	Starting AB second half-transformation.
	Starting BB second half-transformation.
	Two-electron integral transformation complete.
	(VV|OO)...
	Starting AA/AB first half-transformation.
	Sorting AA/AB half-transformed integrals.
	Starting BB first half-transformation.
	Sorting BB half-transformed integrals.
	First half integral transformation complete.
	Starting AA second half-transformation.
	Starting AB second half-transformation.
	Starting BB second half-transformation.
	Two-electron integral transformation complete.
	(VV|OV)...
	Starting AA second half-transformation.
	Starting AB second half-transformation.
	Starting BB second half-transformation.
	Two-electron integral transformation complete.
	(VV|VV)...
	Starting AA second half-transformation.
	Starting AB second half-transformation.
	Starting BB second half-transformation.
	Two-electron integral transformation complete.
	Frozen core energy     =   -125.88841139879779

	Size of irrep 0 of <AB|CD> integrals:     19.643 (MW) /    157.141 (MB)
	Size of irrep 1 of <AB|CD> integrals:     13.660 (MW) /    109.283 (MB)
	Total:                                    33.303 (MW) /    266.424 (MB)

	Size of irrep 0 of <ab|cd> integrals:     20.794 (MW) /    166.349 (MB)
	Size of irrep 1 of <ab|cd> integrals:     14.631 (MW) /    117.045 (MB)
	Total:                                    35.424 (MW) /    283.394 (MB)

	Size of irrep 0 of <Ab|Cd> integrals:     83.174 (MW) /    665.395 (MB)
	Size of irrep 1 of <Ab|Cd> integrals:     56.550 (MW) /    452.403 (MB)
	Total:                                   139.725 (MW) /   1117.798 (MB)

	Size of irrep 0 of <IA|BC> integrals:      5.323 (MW) /     42.586 (MB)
	Size of irrep 1 of <IA|BC> integrals:      3.193 (MW) /     25.547 (MB)
	Total:                                     8.517 (MW) /     68.133 (MB)

	Size of irrep 0 of <ia|bc> integrals:      4.348 (MW) /     34.780 (MB)
	Size of irrep 1 of <ia|bc> integrals:      2.372 (MW) /     18.972 (MB)
	Total:                                     6.719 (MW) /     53.752 (MB)

	Size of irrep 0 of <Ia|Bc> integrals:      5.472 (MW) /     43.776 (MB)
	Size of irrep 1 of <Ia|Bc> integrals:      3.309 (MW) /     26.470 (MB)
	Total:                                     8.781 (MW) /     70.246 (MB)

	Size of irrep 0 of <iA|bC> integrals:      4.232 (MW) /     33.853 (MB)
	Size of irrep 1 of <iA|bC> integrals:      2.286 (MW) /     18.289 (MB)
	Total:                                     6.518 (MW) /     52.142 (MB)

	Size of irrep 0 of tIjAb amplitudes:       0.292 (MW) /      2.335 (MB)
	Size of irrep 1 of tIjAb amplitudes:       0.120 (MW) /      0.963 (MB)
	Total:                                     0.412 (MW) /      3.297 (MB)

	Nuclear Rep. energy          =     22.98354427512327
	SCF energy                   =   -150.87430875200181
	One-electron energy          =    -84.49142675023025
	Two-electron (AA) energy     =     10.15213433041730
	Two-electron (BB) energy     =      5.40010641894262
	Two-electron (AB) energy     =     20.96974437254252
	Two-electron energy          =     36.52198512190245
	Reference energy             =   -150.87430875200232

*** tstop() called on d2-22.compute.lan at Tue Mar  9 15:25:33 2021
Module time:
	user time   =     316.92 seconds =       5.28 minutes
	system time =      24.41 seconds =       0.41 minutes
	total time  =         51 seconds =       0.85 minutes
Total time:
	user time   =     379.69 seconds =       6.33 minutes
	system time =      28.18 seconds =       0.47 minutes
	total time  =         61 seconds =       1.02 minutes
            **************************
            *                        *
            *        CCENERGY        *
            *                        *
            **************************

    Nuclear Rep. energy (wfn)     =   22.983544275123272
    SCF energy          (wfn)     = -150.874308752001809
    Reference energy    (file100) = -150.874308752002321

    Input parameters:
    -----------------
    Wave function   =     CCSD_T
    Reference wfn   =     UHF
    Brueckner       =     No
    Memory (Mbytes) =     4000.0
    Maxiter         =     50
    R_Convergence   =     1.0e-10
    E_Convergence   =     1.0e-10
    Restart         =     Yes
    DIIS            =     Yes
    AO Basis        =     NONE
    ABCD            =     NEW
    Cache Level     =     2
    Cache Type      =     LRU
    Print Level     =     1
    Num. of threads =     12
    # Amps to Print =     10
    Print MP2 Amps? =     No
    Analyze T2 Amps =     No
    Print Pair Ener =     No
    Local CC        =     No
    SCS-MP2         =     False
    SCSN-MP2        =     False
    SCS-CCSD        =     False

MP2 correlation energy -0.4167656576039558
                Solving CC Amplitude Equations
                ------------------------------
  Iter             Energy              RMS        T1Diag      D1Diag    New D1Diag    D2Diag
  ----     ---------------------    ---------   ----------  ----------  ----------   --------
     0        -0.416765657603956    0.000e+00    0.000000    0.000000    0.000000    0.000000
     1        -0.427449398017051    5.699e-02    0.010578    0.000000    0.000000    0.000000
     2        -0.435551031365920    1.692e-02    0.011056    0.000000    0.000000    0.000000
     3        -0.437677821238901    8.602e-03    0.012935    0.000000    0.000000    0.000000
     4        -0.437552074600479    2.541e-03    0.013305    0.000000    0.000000    0.000000
     5        -0.437537149320823    1.330e-03    0.013463    0.000000    0.000000    0.000000
     6        -0.437564581134837    5.181e-04    0.013487    0.000000    0.000000    0.000000
     7        -0.437569295121539    2.708e-04    0.013482    0.000000    0.000000    0.000000
     8        -0.437569874219065    1.022e-04    0.013478    0.000000    0.000000    0.000000
     9        -0.437571276790148    7.605e-05    0.013479    0.000000    0.000000    0.000000
    10        -0.437569654397933    6.505e-05    0.013481    0.000000    0.000000    0.000000
    11        -0.437569815271595    6.181e-05    0.013482    0.000000    0.000000    0.000000
    12        -0.437569537338594    5.998e-05    0.013484    0.000000    0.000000    0.000000
    13        -0.437569539888574    5.886e-05    0.013487    0.000000    0.000000    0.000000
    14        -0.437570721642097    5.705e-05    0.013504    0.000000    0.000000    0.000000
    15        -0.437571109436074    5.059e-05    0.013577    0.000000    0.000000    0.000000
    16        -0.437570870487412    3.373e-05    0.013714    0.000000    0.000000    0.000000
    17        -0.437570516243623    1.623e-05    0.013782    0.000000    0.000000    0.000000
    18        -0.437570376867499    7.618e-06    0.013800    0.000000    0.000000    0.000000
    19        -0.437570633103977    3.382e-06    0.013804    0.000000    0.000000    0.000000
    20        -0.437570746282910    1.517e-06    0.013805    0.000000    0.000000    0.000000
    21        -0.437570754581571    6.085e-07    0.013805    0.000000    0.000000    0.000000
    22        -0.437570756235518    2.956e-07    0.013805    0.000000    0.000000    0.000000
    23        -0.437570755003053    1.551e-07    0.013805    0.000000    0.000000    0.000000
    24        -0.437570754129314    6.503e-08    0.013805    0.000000    0.000000    0.000000
    25        -0.437570755134202    3.560e-08    0.013805    0.000000    0.000000    0.000000
    26        -0.437570755616695    2.789e-08    0.013805    0.000000    0.000000    0.000000
    27        -0.437570755779228    2.626e-08    0.013805    0.000000    0.000000    0.000000
    28        -0.437570755721447    2.553e-08    0.013805    0.000000    0.000000    0.000000
    29        -0.437570755549499    2.491e-08    0.013805    0.000000    0.000000    0.000000
    30        -0.437570755263850    2.394e-08    0.013805    0.000000    0.000000    0.000000
    31        -0.437570755441223    2.092e-08    0.013805    0.000000    0.000000    0.000000
    32        -0.437570755819105    1.160e-08    0.013805    0.000000    0.000000    0.000000
    33        -0.437570755942937    5.146e-09    0.013805    0.000000    0.000000    0.000000
    34        -0.437570756009785    2.095e-09    0.013805    0.000000    0.000000    0.000000
    35        -0.437570756017390    7.734e-10    0.013805    0.000000    0.000000    0.000000
    36        -0.437570756018424    3.295e-10    0.013805    0.000000    0.000000    0.000000

      * MP2 total energy                      = -151.291074409606267
      * CCSD total energy                     = -151.311879508021121
      * CCSD(T) total energy                     = -151.324256862756556
*** Psi4 exiting successfully. Buy a developer a beer!
