                               Psi4 1.3.2 release

  ==> Input File <==

--------------------------------------------------------------------------
memory 4 GB

molecule  {
0 3
O    0.000000000000    0.000000000000   -1.646968585107
H    0.000000000000   -0.754282208900   -1.049688451963
H   -0.000000000000    0.754282208900   -1.049688451963
O    0.000000000000    0.000000000000    1.779248415678
}
set {
basis aug-cc-pvtz
reference uhf
e_convergence 10
scf_type pk
freeze_core true
}

set ccenergy {
e_convergence 10
r_convergence 10
}

e = energy('ccsd(t)')

print_out('Stephenergy {}'.format(e))

--------------------------------------------------------------------------

    Molecular point group: c2v

    Geometry (in Angstrom), charge = 0, multiplicity = 3:

       Center              X                  Y                   Z               Mass
    ------------   -----------------  -----------------  -----------------  -----------------
         O           -0.000000000000     0.000000000000    -1.646968585107    15.994914619570
         H            0.000000000000    -0.754282208900    -1.049688451963     1.007825032230
         H           -0.000000000000     0.754282208900    -1.049688451963     1.007825032230
         O           -0.000000000000     0.000000000000     1.779248415678    15.994914619570

  Charge       = 0
  Multiplicity = 3
  Basis Set: AUG-CC-PVTZ
    Blend: AUG-CC-PVTZ

    Orbital Energies [Eh]
    ---------------------

    Alpha Occupied:

       1A1   -20.728977     2A1   -20.563143     3A1    -1.437959
       4A1    -1.346788     1B2    -0.729365     1B1    -0.728984
       2B2    -0.707651     5A1    -0.632297     6A1    -0.580249
       2B1    -0.505335

    Alpha Virtual:

       7A1     0.035483     3B2     0.048548     3B1     0.132097
       8A1     0.134723     9A1     0.148016     4B2     0.158006
       4B1     0.181165     5B2     0.184983    10A1     0.189283
      11A1     0.250254     6B2     0.257471     1A2     0.266104
      12A1     0.273482     5B1     0.319642    13A1     0.367550
       7B2     0.382365    14A1     0.454112     8B2     0.471763
       2A2     0.609083     9B2     0.615714    15A1     0.618356
      16A1     0.619595     6B1     0.640577    17A1     0.717616
       3A2     0.731153    10B2     0.735936     7B1     0.742012
      18A1     0.800439    19A1     0.838265     8B1     0.840828
      11B2     0.854092     9B1     0.915363    20A1     0.925383
       4A2     0.934064    12B2     0.941786    21A1     0.958312
      10B1     0.960695    13B2     0.962030    22A1     1.048763
      14B2     1.053974    11B1     1.122989     5A2     1.185744
      23A1     1.186545    15B2     1.255341    24A1     1.262207
      16B2     1.275337    25A1     1.346027     6A2     1.511322
      12B1     1.591204    26A1     1.631121    27A1     1.829007
      17B2     1.830060    18B2     1.971761    13B1     1.978575
      19B2     1.989280    28A1     2.005289     7A2     2.011079
      14B1     2.026089    29A1     2.036222     8A2     2.039790
      20B2     2.081141    30A1     2.086211    15B1     2.119730
      31A1     2.145454    21B2     2.260681    16B1     2.278782
       9A2     2.329187    32A1     2.337497    33A1     2.402325
      34A1     2.487864    22B2     2.492131    17B1     2.505635
      35A1     2.575433    23B2     2.689469    18B1     2.718818
      36A1     2.819962    10A2     2.888563    24B2     2.900534
      25B2     3.666540    37A1     3.751927    11A2     4.031263
      19B1     4.050687    26B2     4.084634    20B1     4.100826
      38A1     4.147104    27B2     4.277479    21B1     4.281718
      39A1     4.366432    12A2     4.382891    40A1     4.405176
      22B1     4.416126    28B2     4.530452    41A1     4.748996
      29B2     4.851618    13A2     5.148146    30B2     5.164839
      31B2     5.249412    42A1     5.367022    23B1     5.526830
      43A1     5.672834    44A1     6.199883    24B1     6.315135
      32B2     6.315973    14A2     6.370042    45A1     6.375244
      25B1     6.402029    33B2     6.450134    46A1     6.480111
      34B2     6.527405    26B1     6.737196    15A2     6.819126
      47A1     6.820558    27B1     6.927411    48A1     6.930542
      35B2     6.956820    49A1     7.033055    28B1     7.135176
      29B1     7.260231    16A2     7.317309    36B2     7.340564
      17A2     7.357793    50A1     7.358517    51A1     7.545472
      52A1     7.897430    37B2     7.936333    53A1     8.530489
      38B2     8.811200    54A1    15.712943

    Beta Occupied:

       1A1   -20.650411     2A1   -20.563181     3A1    -1.346962
       4A1    -1.095659     1B2    -0.707786     5A1    -0.584364
       6A1    -0.538557     1B1    -0.505326

    Beta Virtual:

       2B2     0.035379     7A1     0.036603     2B1     0.049876
       3B2     0.069576     8A1     0.140886     9A1     0.150593
       3B1     0.160454     4B2     0.180894    10A1     0.189600
       5B2     0.221861     4B1     0.225293    11A1     0.259261
       6B2     0.263063     1A2     0.266419    12A1     0.274916
       5B1     0.320286    13A1     0.370937     7B2     0.387425
      14A1     0.455246     8B2     0.472296     9B2     0.618159
      15A1     0.620784     2A2     0.641309    16A1     0.651336
       6B1     0.652685    17A1     0.718940     3A2     0.732580
       7B1     0.743995    10B2     0.747352    18A1     0.808999
      19A1     0.851282     8B1     0.912197     9B1     0.930527
      20A1     0.930709     4A2     0.935462    11B2     0.940003
      12B2     0.944578    21A1     0.959243    13B2     1.009520
      10B1     1.024991    22A1     1.049357    14B2     1.056794
      11B1     1.128049     5A2     1.186451    23A1     1.190610
      15B2     1.268902    16B2     1.278551    24A1     1.281039
      25A1     1.403485     6A2     1.511429    12B1     1.591306
      26A1     1.643776    27A1     1.830138    17B2     1.831304
      18B2     1.978581    13B1     2.016670    19B2     2.021361
      28A1     2.030474     7A2     2.041568    14B1     2.046323
      29A1     2.099873    20B2     2.124968    30A1     2.155115
       8A2     2.182379    15B1     2.189011    31A1     2.195253
      16B1     2.282996    21B2     2.306650     9A2     2.332127
      32A1     2.358470    33A1     2.413063    34A1     2.492085
      22B2     2.496754    17B1     2.510307    35A1     2.578421
      23B2     2.689629    18B1     2.718908    36A1     2.820273
      10A2     2.888585    24B2     2.902568    25B2     3.666579
      37A1     3.752073    11A2     4.031350    19B1     4.100172
      38A1     4.161633    20B1     4.223502    26B2     4.241085
      21B1     4.281739    27B2     4.291238    12A2     4.382938
      39A1     4.390032    40A1     4.414555    22B1     4.416310
      28B2     4.530650    41A1     4.749145    29B2     4.851710
      13A2     5.148163    30B2     5.164843    31B2     5.249435
      42A1     5.367471    23B1     5.526834    43A1     5.673169
      44A1     6.201571    24B1     6.423983    32B2     6.424676
      14A2     6.446703    45A1     6.450292    25B1     6.457316
      33B2     6.494590    46A1     6.528919    34B2     6.539579
      26B1     6.743605    47A1     6.930575    15A2     7.008150
      48A1     7.009950    27B1     7.034841    35B2     7.065853
      49A1     7.114027    28B1     7.135444    29B1     7.260187
      16A2     7.317347    36B2     7.342660    17A2     7.357855
      50A1     7.359190    51A1     7.546180    52A1     7.897661
      37B2     7.936317    53A1     8.615601    38B2     8.811139
      54A1    15.712937

    Final Occupation by Irrep:
             A1    A2    B1    B2
    DOCC [     6,    0,    1,    1 ]
    SOCC [     0,    0,    1,    1 ]

  @UHF Final Energy:  -150.87353845872855

   => Energetics <=

    Nuclear Repulsion Energy =             21.9275898207786923
    One-Electron Energy =                -251.6492632381159069
    Two-Electron Energy =                  78.8481349586086822
    Total Energy =                       -150.8735384587285466

  UHF NO Occupations:
  HONO-2 :    6 A1 1.9970742
  HONO-1 :    2 B2 1.0000000
  HONO-0 :    2 B1 1.0000000
  LUNO+0 :    7 A1 0.0029258
  LUNO+1 :    8 A1 0.0016872
  LUNO+2 :    9 A1 0.0000024
  LUNO+3 :   10 A1 0.0000004

Computation Completed

Properties will be evaluated at   0.000000,   0.000000,   0.000000 [a0]

Properties computed using the SCF density matrix

  Nuclear Dipole Moment: [e a0]
     X:    -0.0000      Y:     0.0000      Z:    -1.9675

  Electronic Dipole Moment: [e a0]
     X:     0.0000      Y:     0.0000      Z:     2.8015

  Dipole Moment: [e a0]
     X:    -0.0000      Y:     0.0000      Z:     0.8340     Total:     0.8340

  Dipole Moment: [D]
     X:    -0.0000      Y:     0.0000      Z:     2.1199     Total:     2.1199

*** tstop() called on c4-4.compute.lan at Wed Mar 10 10:52:46 2021
Module time:
	user time   =      47.06 seconds =       0.78 minutes
	system time =       0.82 seconds =       0.01 minutes
	total time  =          5 seconds =       0.08 minutes
Total time:
	user time   =      47.06 seconds =       0.78 minutes
	system time =       0.82 seconds =       0.01 minutes
	total time  =          5 seconds =       0.08 minutes
 MINTS: Wrapper to libmints.
   by Justin Turney

   Calculation information:
      Number of threads:                12
      Number of atoms:                   4
      Number of AO shells:              46
      Number of SO shells:              37
      Number of primitives:             82
      Number of atomic orbitals:       160
      Number of basis functions:       138

      Number of irreps:                  4
      Integral cutoff                 0.00e+00
      Number of functions per irrep: [  54   17   29   38 ]

 OEINTS: Overlap, kinetic, potential, dipole, and quadrupole integrals
         stored in file 35.

      Computing two-electron integrals...done
      Computed 11529920 non-zero two-electron integrals.
        Stored in file 33.

*** tstart() called on c4-4.compute.lan
*** at Wed Mar 10 10:52:48 2021

	Wfn Parameters:
	--------------------
	Wavefunction         = CCSD_T
	Number of irreps     = 4
	Number of MOs        = 138
	Number of active MOs = 136
	AO-Basis             = NONE
	Semicanonical        = false
	Reference            = UHF
	Print Level          = 1

	IRREP	# MOs	# FZDC	# DOCC	# SOCC	# VIRT	# FZVR
	-----	-----	------	------	------	------	------
	 A1	   54	    2	    4	    0	    48	    0
	 A2	   17	    0	    0	    0	    17	    0
	 B1	   29	    0	    1	    1	    27	    0
	 B2	   38	    0	    1	    1	    36	    0
	Transforming integrals...
	IWL integrals will be deleted.
	(OO|OO)...
	Presorting SO-basis two-electron integrals.
	Sorting File: SO Ints (nn|nn) nbuckets = 1
	Transforming the one-electron integrals and constructing Fock matrices
	Starting AA/AB first half-transformation.
	Sorting AA/AB half-transformed integrals.
	Starting BB first half-transformation.
	Sorting BB half-transformed integrals.
	First half integral transformation complete.
	Starting AA second half-transformation.
	Starting AB second half-transformation.
	Starting BB second half-transformation.
	Two-electron integral transformation complete.
	(OO|OV)...
	Starting AA second half-transformation.
	Starting AB second half-transformation.
	Starting BB second half-transformation.
	Two-electron integral transformation complete.
	(OO|VV)...
	Starting AA second half-transformation.
	Starting AB second half-transformation.
	Starting BB second half-transformation.
	Two-electron integral transformation complete.
	(OV|OO)...
	Starting AA/AB first half-transformation.
	Sorting AA/AB half-transformed integrals.
	Starting BB first half-transformation.
	Sorting BB half-transformed integrals.
	First half integral transformation complete.
	Starting AA second half-transformation.
	Starting AB second half-transformation.
	Starting BB second half-transformation.
	Two-electron integral transformation complete.
	(OV|OV)...
	Starting AA second half-transformation.
	Starting AB second half-transformation.
	Starting BB second half-transformation.
	Two-electron integral transformation complete.
	(OV|VV)...
	Starting AA second half-transformation.
	Starting AB second half-transformation.
	Starting BB second half-transformation.
	Two-electron integral transformation complete.
	(VV|OO)...
	Starting AA/AB first half-transformation.
	Sorting AA/AB half-transformed integrals.
	Starting BB first half-transformation.
	Sorting BB half-transformed integrals.
	First half integral transformation complete.
	Starting AA second half-transformation.
	Starting AB second half-transformation.
	Starting BB second half-transformation.
	Two-electron integral transformation complete.
	(VV|OV)...
	Starting AA second half-transformation.
	Starting AB second half-transformation.
	Starting BB second half-transformation.
	Two-electron integral transformation complete.
	(VV|VV)...
	Starting AA second half-transformation.
	Starting AB second half-transformation.
	Starting BB second half-transformation.
	Two-electron integral transformation complete.
	Frozen core energy     =   -125.45860467206015

	Size of irrep 0 of <AB|CD> integrals:      5.040 (MW) /     40.320 (MB)
	Size of irrep 1 of <AB|CD> integrals:      3.197 (MW) /     25.576 (MB)
	Size of irrep 2 of <AB|CD> integrals:      3.640 (MW) /     29.124 (MB)
	Size of irrep 3 of <AB|CD> integrals:      4.783 (MW) /     38.264 (MB)
	Total:                                    16.660 (MW) /    133.283 (MB)

	Size of irrep 0 of <ab|cd> integrals:      5.327 (MW) /     42.615 (MB)
	Size of irrep 1 of <ab|cd> integrals:      3.430 (MW) /     27.439 (MB)
	Size of irrep 2 of <ab|cd> integrals:      3.893 (MW) /     31.142 (MB)
	Size of irrep 3 of <ab|cd> integrals:      5.072 (MW) /     40.572 (MB)
	Total:                                    17.721 (MW) /    141.768 (MB)

	Size of irrep 0 of <Ab|Cd> integrals:     21.912 (MW) /    175.294 (MB)
	Size of irrep 1 of <Ab|Cd> integrals:     13.242 (MW) /    105.939 (MB)
	Size of irrep 2 of <Ab|Cd> integrals:     15.062 (MW) /    120.497 (MB)
	Size of irrep 3 of <Ab|Cd> integrals:     19.705 (MW) /    157.638 (MB)
	Total:                                    69.921 (MW) /    559.368 (MB)

	Size of irrep 0 of <IA|BC> integrals:      1.469 (MW) /     11.748 (MB)
	Size of irrep 1 of <IA|BC> integrals:      0.694 (MW) /      5.550 (MB)
	Size of irrep 2 of <IA|BC> integrals:      0.908 (MW) /      7.266 (MB)
	Size of irrep 3 of <IA|BC> integrals:      1.198 (MW) /      9.588 (MB)
	Total:                                     4.269 (MW) /     34.152 (MB)

	Size of irrep 0 of <ia|bc> integrals:      1.220 (MW) /      9.758 (MB)
	Size of irrep 1 of <ia|bc> integrals:      0.493 (MW) /      3.941 (MB)
	Size of irrep 2 of <ia|bc> integrals:      0.698 (MW) /      5.588 (MB)
	Size of irrep 3 of <ia|bc> integrals:      0.959 (MW) /      7.675 (MB)
	Total:                                     3.370 (MW) /     26.961 (MB)

	Size of irrep 0 of <Ia|Bc> integrals:      1.507 (MW) /     12.058 (MB)
	Size of irrep 1 of <Ia|Bc> integrals:      0.721 (MW) /      5.764 (MB)
	Size of irrep 2 of <Ia|Bc> integrals:      0.939 (MW) /      7.514 (MB)
	Size of irrep 3 of <Ia|Bc> integrals:      1.234 (MW) /      9.872 (MB)
	Total:                                     4.401 (MW) /     35.208 (MB)

	Size of irrep 0 of <iA|bC> integrals:      1.194 (MW) /      9.549 (MB)
	Size of irrep 1 of <iA|bC> integrals:      0.477 (MW) /      3.814 (MB)
	Size of irrep 2 of <iA|bC> integrals:      0.671 (MW) /      5.371 (MB)
	Size of irrep 3 of <iA|bC> integrals:      0.928 (MW) /      7.422 (MB)
	Total:                                     3.270 (MW) /     26.156 (MB)

	Size of irrep 0 of tIjAb amplitudes:       0.094 (MW) /      0.749 (MB)
	Size of irrep 1 of tIjAb amplitudes:       0.015 (MW) /      0.116 (MB)
	Size of irrep 2 of tIjAb amplitudes:       0.047 (MW) /      0.373 (MB)
	Size of irrep 3 of tIjAb amplitudes:       0.053 (MW) /      0.426 (MB)
	Total:                                     0.208 (MW) /      1.664 (MB)

	Nuclear Rep. energy          =     21.92758982077869
	SCF energy                   =   -150.87353845872855
	One-electron energy          =    -83.23776559040775
	Two-electron (AA) energy     =      9.94566137248093
	Two-electron (BB) energy     =      5.29245682588606
	Two-electron (AB) energy     =     20.65712378459243
	Two-electron energy          =     35.89524198295941
	Reference energy             =   -150.87353845872980

*** tstop() called on c4-4.compute.lan at Wed Mar 10 10:53:07 2021
Module time:
	user time   =      50.15 seconds =       0.84 minutes
	system time =       9.84 seconds =       0.16 minutes
	total time  =         19 seconds =       0.32 minutes
Total time:
	user time   =     102.65 seconds =       1.71 minutes
	system time =      11.02 seconds =       0.18 minutes
	total time  =         26 seconds =       0.43 minutes
            **************************
            *                        *
            *        CCENERGY        *
            *                        *
            **************************

    Nuclear Rep. energy (wfn)     =   21.927589820778692
    SCF energy          (wfn)     = -150.873538458728547
    Reference energy    (file100) = -150.873538458729797

    Input parameters:
    -----------------
    Wave function   =     CCSD_T
    Reference wfn   =     UHF
    Brueckner       =     No
    Memory (Mbytes) =     4000.0
    Maxiter         =     50
    R_Convergence   =     1.0e-10
    E_Convergence   =     1.0e-10
    Restart         =     Yes
    DIIS            =     Yes
    AO Basis        =     NONE
    ABCD            =     NEW
    Cache Level     =     2
    Cache Type      =     LRU
    Print Level     =     1
    Num. of threads =     12
    # Amps to Print =     10
    Print MP2 Amps? =     No
    Analyze T2 Amps =     No
    Print Pair Ener =     No
    Local CC        =     No
    SCS-MP2         =     False
    SCSN-MP2        =     False
    SCS-CCSD        =     False

MP2 correlation energy -0.4157779384491171
                Solving CC Amplitude Equations
                ------------------------------
  Iter             Energy              RMS        T1Diag      D1Diag    New D1Diag    D2Diag
  ----     ---------------------    ---------   ----------  ----------  ----------   --------
     0        -0.415777938449117    0.000e+00    0.000000    0.000000    0.000000    0.000000
     1        -0.426618284436639    5.643e-02    0.010370    0.000000    0.000000    0.000000
     2        -0.434714600002904    1.680e-02    0.010871    0.000000    0.000000    0.000000
     3        -0.436816021881676    8.417e-03    0.012689    0.000000    0.000000    0.000000
     4        -0.436692055276098    2.493e-03    0.013033    0.000000    0.000000    0.000000
     5        -0.436679993062310    1.259e-03    0.013175    0.000000    0.000000    0.000000
     6        -0.436705432107916    4.986e-04    0.013189    0.000000    0.000000    0.000000
     7        -0.436709565434445    2.249e-04    0.013179    0.000000    0.000000    0.000000
     8        -0.436710317504722    6.830e-05    0.013173    0.000000    0.000000    0.000000
     9        -0.436711535856653    2.793e-05    0.013172    0.000000    0.000000    0.000000
    10        -0.436710361607498    1.057e-05    0.013172    0.000000    0.000000    0.000000
    11        -0.436710472098203    5.227e-06    0.013172    0.000000    0.000000    0.000000
    12        -0.436710432634680    2.546e-06    0.013172    0.000000    0.000000    0.000000
    13        -0.436710426187715    1.366e-06    0.013172    0.000000    0.000000    0.000000
    14        -0.436710453159306    6.402e-07    0.013173    0.000000    0.000000    0.000000
    15        -0.436710451750194    1.727e-07    0.013173    0.000000    0.000000    0.000000
    16        -0.436710451618895    1.055e-07    0.013173    0.000000    0.000000    0.000000
    17        -0.436710452421486    2.986e-08    0.013173    0.000000    0.000000    0.000000
    18        -0.436710452002260    1.373e-08    0.013173    0.000000    0.000000    0.000000

      * MP2 total energy                      = -151.289316397178908
      * CCSD total energy                     = -151.310248910460700
      * CCSD(T) total energy                     = -151.322473979128574
*** Psi4 exiting successfully. Buy a developer a beer!
