                               Psi4 1.3.2 release

  ==> Input File <==

--------------------------------------------------------------------------
memory 4 GB

molecule  {
0 3
O   -1.558569952353   -0.023126723271    0.000000000000
H   -0.594592000640   -0.017338891235    0.000000000000
H   -1.818571362732    0.900562377630    0.000000000000
O    1.710621182529   -0.032524385836    0.000000000000
}
set {
basis aug-cc-pvtz
reference uhf
e_convergence 10
scf_type pk
freeze_core true
}

set ccenergy {
e_convergence 10
r_convergence 10
}

e = energy('ccsd(t)')

print_out('Stephenergy {}'.format(e))

--------------------------------------------------------------------------

    Molecular point group: cs

    Geometry (in Angstrom), charge = 0, multiplicity = 3:

       Center              X                  Y                   Z               Mass
    ------------   -----------------  -----------------  -----------------  -----------------
         O           -1.558569952353    -0.023126723271     0.000000000000    15.994914619570
         H           -0.594592000640    -0.017338891235     0.000000000000     1.007825032230
         H           -1.818571362732     0.900562377630     0.000000000000     1.007825032230
         O            1.710621182529    -0.032524385836     0.000000000000    15.994914619570

  Charge       = 0
  Multiplicity = 3
  Basis Set: AUG-CC-PVTZ
    Blend: AUG-CC-PVTZ

    Orbital Energies [Eh]
    ---------------------

    Alpha Occupied:

       1Ap   -20.733495     2Ap   -20.559072     3Ap    -1.442589
       4Ap    -1.343036     5Ap    -0.733272     1App   -0.733153
       6Ap    -0.711691     7Ap    -0.635598     8Ap    -0.573877
       2App   -0.502221

    Alpha Virtual:

       9Ap     0.034508    10Ap     0.053281    11Ap     0.127954
       3App    0.131775    12Ap     0.148003    13Ap     0.160923
      14Ap     0.183124     4App    0.185177    15Ap     0.209954
      16Ap     0.240022    17Ap     0.270478     5App    0.282097
      18Ap     0.293064     6App    0.322339    19Ap     0.368241
      20Ap     0.390654    21Ap     0.459434    22Ap     0.558496
       7App    0.600982    23Ap     0.607963    24Ap     0.645768
      25Ap     0.666057     8App    0.704165    26Ap     0.713226
       9App    0.734154    10App    0.746711    27Ap     0.763641
      28Ap     0.794294    11App    0.824364    29Ap     0.846771
      30Ap     0.859434    12App    0.879821    31Ap     0.919628
      32Ap     0.938968    13App    0.942457    33Ap     0.953785
      14App    0.980175    34Ap     0.986066    35Ap     1.042832
      36Ap     1.118698    37Ap     1.171636    15App    1.172064
      38Ap     1.193932    16App    1.243407    39Ap     1.269123
      40Ap     1.305101    17App    1.527042    41Ap     1.558334
      18App    1.600111    42Ap     1.665520    43Ap     1.805413
      44Ap     1.815818    19App    1.976684    45Ap     1.976734
      46Ap     2.001574    20App    2.010804    47Ap     2.019087
      21App    2.042240    48Ap     2.054316    22App    2.112493
      49Ap     2.151236    50Ap     2.158756    23App    2.194529
      51Ap     2.282306    24App    2.291331    52Ap     2.326514
      53Ap     2.401880    25App    2.440351    54Ap     2.458482
      26App    2.500072    55Ap     2.514376    56Ap     2.597309
      57Ap     2.663873    27App    2.728148    58Ap     2.743211
      59Ap     2.865449    60Ap     2.941325    28App    2.944278
      61Ap     3.695124    62Ap     3.867223    29App    4.028473
      30App    4.056583    63Ap     4.074145    31App    4.164416
      64Ap     4.206266    65Ap     4.265857    32App    4.310862
      66Ap     4.377067    33App    4.392433    34App    4.434997
      67Ap     4.441353    68Ap     4.565557    69Ap     4.776196
      70Ap     4.945649    35App    5.158922    71Ap     5.168533
      72Ap     5.316044    73Ap     5.372563    36App    5.522505
      74Ap     5.701611    75Ap     6.184877    37App    6.311588
      76Ap     6.311619    38App    6.370079    77Ap     6.372386
      39App    6.501947    78Ap     6.518488    79Ap     6.547064
      80Ap     6.617413    40App    6.721330    81Ap     6.812626
      41App    6.818376    82Ap     6.900798    42App    6.930844
      83Ap     6.960862    84Ap     7.046532    43App    7.146907
      44App    7.273642    45App    7.322618    85Ap     7.331565
      86Ap     7.357809    46App    7.434087    87Ap     7.657119
      88Ap     7.944047    89Ap     7.962693    90Ap     8.803198
      91Ap     9.258038    92Ap    16.481015

    Beta Occupied:

       1Ap   -20.654724     2Ap   -20.559186     3Ap    -1.343514
       4Ap    -1.100094     5Ap    -0.711125     6Ap    -0.579039
       7Ap    -0.541585     1App   -0.502273

    Beta Virtual:

       8Ap     0.034258     9Ap     0.046584     2App    0.048505
      10Ap     0.057935    11Ap     0.144075    12Ap     0.151211
       3App    0.160150    13Ap     0.179631    14Ap     0.209487
      15Ap     0.217842     4App    0.226319    16Ap     0.249381
      17Ap     0.272502     5App    0.282390    18Ap     0.295474
       6App    0.325172    19Ap     0.371798    20Ap     0.399959
      21Ap     0.460056    22Ap     0.561090     7App    0.633441
      23Ap     0.638568    24Ap     0.648518    25Ap     0.669179
      26Ap     0.713937     8App    0.717888     9App    0.735281
      10App    0.748040    27Ap     0.780597    28Ap     0.806051
      29Ap     0.852302    11App    0.864174    30Ap     0.915656
      12App    0.932974    31Ap     0.939240    13App    0.950026
      32Ap     0.950120    33Ap     0.974537    34Ap     1.013867
      14App    1.024021    35Ap     1.045694    36Ap     1.135003
      15App    1.175360    37Ap     1.178084    38Ap     1.230279
      16App    1.253982    39Ap     1.270779    40Ap     1.315826
      17App    1.527891    41Ap     1.565120    18App    1.601464
      42Ap     1.694707    43Ap     1.809595    44Ap     1.819998
      45Ap     2.011263    19App    2.014816    46Ap     2.015075
      20App    2.047016    47Ap     2.059718    21App    2.156836
      22App    2.179096    48Ap     2.179793    49Ap     2.196502
      50Ap     2.209196    23App    2.236038    24App    2.293111
      51Ap     2.306936    52Ap     2.335976    53Ap     2.412064
      25App    2.442689    54Ap     2.459493    26App    2.508809
      55Ap     2.522046    56Ap     2.603485    57Ap     2.673707
      27App    2.729073    58Ap     2.748130    59Ap     2.869908
      60Ap     2.943813    28App    2.944987    61Ap     3.695579
      62Ap     3.869277    29App    4.028786    30App    4.141107
      63Ap     4.189928    64Ap     4.241506    31App    4.250058
      65Ap     4.284173    32App    4.310955    33App    4.392613
      66Ap     4.395059    34App    4.436562    67Ap     4.469633
      68Ap     4.566476    69Ap     4.777853    70Ap     4.947334
      35App    5.158901    71Ap     5.168962    72Ap     5.316249
      73Ap     5.373427    36App    5.522543    74Ap     5.702108
      75Ap     6.185433    37App    6.420553    76Ap     6.420574
      38App    6.445780    77Ap     6.448300    78Ap     6.534260
      39App    6.557291    79Ap     6.587085    80Ap     6.664305
      40App    6.724899    81Ap     6.900951    41App    7.004986
      82Ap     7.005563    42App    7.039193    83Ap     7.067897
      84Ap     7.127611    43App    7.149218    44App    7.274048
      45App    7.323402    85Ap     7.331559    86Ap     7.358301
      46App    7.434539    87Ap     7.658879    88Ap     7.944310
      89Ap     7.962929    90Ap     8.805545    91Ap     9.332801
      92Ap    16.481490

    Final Occupation by Irrep:
             Ap   App
    DOCC [     7,    1 ]
    SOCC [     1,    1 ]

  @UHF Final Energy:  -150.87464608478069

   => Energetics <=

    Nuclear Repulsion Energy =             22.5047513740300040
    One-Electron Energy =                -252.7992516102267189
    Two-Electron Energy =                  79.4198541514160183
    Total Energy =                       -150.8746460847806929

  UHF NO Occupations:
  HONO-2 :    7 Ap 1.9970326
  HONO-1 :    8 Ap 1.0000000
  HONO-0 :    2App 1.0000000
  LUNO+0 :    9 Ap 0.0029674
  LUNO+1 :   10 Ap 0.0017236
  LUNO+2 :   11 Ap 0.0000024
  LUNO+3 :   12 Ap 0.0000014

Computation Completed

Properties will be evaluated at   0.000000,   0.000000,   0.000000 [a0]

Properties computed using the SCF density matrix

  Nuclear Dipole Moment: [e a0]
     X:    -2.2615      Y:     0.8277      Z:     0.0000

  Electronic Dipole Moment: [e a0]
     X:     2.8154      Y:    -0.2173      Z:     0.0000

  Dipole Moment: [e a0]
     X:     0.5538      Y:     0.6104      Z:     0.0000     Total:     0.8242

  Dipole Moment: [D]
     X:     1.4077      Y:     1.5514      Z:     0.0000     Total:     2.0949

*** tstop() called on c1-11.compute.lan at Tue Mar  9 14:40:37 2021
Module time:
	user time   =      62.41 seconds =       1.04 minutes
	system time =       3.31 seconds =       0.06 minutes
	total time  =          7 seconds =       0.12 minutes
Total time:
	user time   =      62.41 seconds =       1.04 minutes
	system time =       3.31 seconds =       0.06 minutes
	total time  =          7 seconds =       0.12 minutes
 MINTS: Wrapper to libmints.
   by Justin Turney

   Calculation information:
      Number of threads:                12
      Number of atoms:                   4
      Number of AO shells:              46
      Number of SO shells:              46
      Number of primitives:             82
      Number of atomic orbitals:       160
      Number of basis functions:       138

      Number of irreps:                  2
      Integral cutoff                 0.00e+00
      Number of functions per irrep: [  92   46 ]

 OEINTS: Overlap, kinetic, potential, dipole, and quadrupole integrals
         stored in file 35.

      Computing two-electron integrals...done
      Computed 22940449 non-zero two-electron integrals.
        Stored in file 33.

*** tstart() called on c1-11.compute.lan
*** at Tue Mar  9 14:40:40 2021

	Wfn Parameters:
	--------------------
	Wavefunction         = CCSD_T
	Number of irreps     = 2
	Number of MOs        = 138
	Number of active MOs = 136
	AO-Basis             = NONE
	Semicanonical        = false
	Reference            = UHF
	Print Level          = 1

	IRREP	# MOs	# FZDC	# DOCC	# SOCC	# VIRT	# FZVR
	-----	-----	------	------	------	------	------
	 Ap	   92	    2	    5	    1	    84	    0
	 App	   46	    0	    1	    1	    44	    0
	Transforming integrals...
	IWL integrals will be deleted.
	(OO|OO)...
	Presorting SO-basis two-electron integrals.
	Sorting File: SO Ints (nn|nn) nbuckets = 1
	Transforming the one-electron integrals and constructing Fock matrices
	Starting AA/AB first half-transformation.
	Sorting AA/AB half-transformed integrals.
	Starting BB first half-transformation.
	Sorting BB half-transformed integrals.
	First half integral transformation complete.
	Starting AA second half-transformation.
	Starting AB second half-transformation.
	Starting BB second half-transformation.
	Two-electron integral transformation complete.
	(OO|OV)...
	Starting AA second half-transformation.
	Starting AB second half-transformation.
	Starting BB second half-transformation.
	Two-electron integral transformation complete.
	(OO|VV)...
	Starting AA second half-transformation.
	Starting AB second half-transformation.
	Starting BB second half-transformation.
	Two-electron integral transformation complete.
	(OV|OO)...
	Starting AA/AB first half-transformation.
	Sorting AA/AB half-transformed integrals.
	Starting BB first half-transformation.
	Sorting BB half-transformed integrals.
	First half integral transformation complete.
	Starting AA second half-transformation.
	Starting AB second half-transformation.
	Starting BB second half-transformation.
	Two-electron integral transformation complete.
	(OV|OV)...
	Starting AA second half-transformation.
	Starting AB second half-transformation.
	Starting BB second half-transformation.
	Two-electron integral transformation complete.
	(OV|VV)...
	Starting AA second half-transformation.
	Starting AB second half-transformation.
	Starting BB second half-transformation.
	Two-electron integral transformation complete.
	(VV|OO)...
	Starting AA/AB first half-transformation.
	Sorting AA/AB half-transformed integrals.
	Starting BB first half-transformation.
	Sorting BB half-transformed integrals.
	First half integral transformation complete.
	Starting AA second half-transformation.
	Starting AB second half-transformation.
	Starting BB second half-transformation.
	Two-electron integral transformation complete.
	(VV|OV)...
	Starting AA second half-transformation.
	Starting AB second half-transformation.
	Starting BB second half-transformation.
	Two-electron integral transformation complete.
	(VV|VV)...
	Starting AA second half-transformation.
	Starting AB second half-transformation.
	Starting BB second half-transformation.
	Two-electron integral transformation complete.
	Frozen core energy     =   -125.69308631308374

	Size of irrep 0 of <AB|CD> integrals:     19.643 (MW) /    157.141 (MB)
	Size of irrep 1 of <AB|CD> integrals:     13.660 (MW) /    109.283 (MB)
	Total:                                    33.303 (MW) /    266.424 (MB)

	Size of irrep 0 of <ab|cd> integrals:     20.794 (MW) /    166.349 (MB)
	Size of irrep 1 of <ab|cd> integrals:     14.631 (MW) /    117.045 (MB)
	Total:                                    35.424 (MW) /    283.394 (MB)

	Size of irrep 0 of <Ab|Cd> integrals:     83.174 (MW) /    665.395 (MB)
	Size of irrep 1 of <Ab|Cd> integrals:     56.550 (MW) /    452.403 (MB)
	Total:                                   139.725 (MW) /   1117.798 (MB)

	Size of irrep 0 of <IA|BC> integrals:      5.323 (MW) /     42.586 (MB)
	Size of irrep 1 of <IA|BC> integrals:      3.193 (MW) /     25.547 (MB)
	Total:                                     8.517 (MW) /     68.133 (MB)

	Size of irrep 0 of <ia|bc> integrals:      4.348 (MW) /     34.780 (MB)
	Size of irrep 1 of <ia|bc> integrals:      2.372 (MW) /     18.972 (MB)
	Total:                                     6.719 (MW) /     53.752 (MB)

	Size of irrep 0 of <Ia|Bc> integrals:      5.472 (MW) /     43.776 (MB)
	Size of irrep 1 of <Ia|Bc> integrals:      3.309 (MW) /     26.470 (MB)
	Total:                                     8.781 (MW) /     70.246 (MB)

	Size of irrep 0 of <iA|bC> integrals:      4.232 (MW) /     33.853 (MB)
	Size of irrep 1 of <iA|bC> integrals:      2.286 (MW) /     18.289 (MB)
	Total:                                     6.518 (MW) /     52.142 (MB)

	Size of irrep 0 of tIjAb amplitudes:       0.292 (MW) /      2.335 (MB)
	Size of irrep 1 of tIjAb amplitudes:       0.120 (MW) /      0.963 (MB)
	Total:                                     0.412 (MW) /      3.297 (MB)

	Nuclear Rep. energy          =     22.50475137403000
	SCF energy                   =   -150.87464608478069
	One-electron energy          =    -83.91955531667969
	Two-electron (AA) energy     =     10.05619080782671
	Two-electron (BB) energy     =      5.35139793856946
	Two-electron (AB) energy     =     20.82565542455492
	Two-electron energy          =     36.23324417095108
	Reference energy             =   -150.87464608478234

*** tstop() called on c1-11.compute.lan at Tue Mar  9 14:41:21 2021
Module time:
	user time   =     105.87 seconds =       1.76 minutes
	system time =      26.58 seconds =       0.44 minutes
	total time  =         41 seconds =       0.68 minutes
Total time:
	user time   =     174.33 seconds =       2.91 minutes
	system time =      30.67 seconds =       0.51 minutes
	total time  =         51 seconds =       0.85 minutes
            **************************
            *                        *
            *        CCENERGY        *
            *                        *
            **************************

    Nuclear Rep. energy (wfn)     =   22.504751374030004
    SCF energy          (wfn)     = -150.874646084780693
    Reference energy    (file100) = -150.874646084782341

    Input parameters:
    -----------------
    Wave function   =     CCSD_T
    Reference wfn   =     UHF
    Brueckner       =     No
    Memory (Mbytes) =     4000.0
    Maxiter         =     50
    R_Convergence   =     1.0e-10
    E_Convergence   =     1.0e-10
    Restart         =     Yes
    DIIS            =     Yes
    AO Basis        =     NONE
    ABCD            =     NEW
    Cache Level     =     2
    Cache Type      =     LRU
    Print Level     =     1
    Num. of threads =     12
    # Amps to Print =     10
    Print MP2 Amps? =     No
    Analyze T2 Amps =     No
    Print Pair Ener =     No
    Local CC        =     No
    SCS-MP2         =     False
    SCSN-MP2        =     False
    SCS-CCSD        =     False

MP2 correlation energy -0.4162928690505716
                Solving CC Amplitude Equations
                ------------------------------
  Iter             Energy              RMS        T1Diag      D1Diag    New D1Diag    D2Diag
  ----     ---------------------    ---------   ----------  ----------  ----------   --------
     0        -0.416292869050572    0.000e+00    0.000000    0.000000    0.000000    0.000000
     1        -0.427069594255812    5.671e-02    0.010496    0.000000    0.000000    0.000000
     2        -0.435148253281917    1.685e-02    0.010981    0.000000    0.000000    0.000000
     3        -0.437261640908749    8.522e-03    0.012835    0.000000    0.000000    0.000000
     4        -0.437136377540964    2.525e-03    0.013195    0.000000    0.000000    0.000000
     5        -0.437122724418888    1.301e-03    0.013346    0.000000    0.000000    0.000000
     6        -0.437149425478559    5.086e-04    0.013365    0.000000    0.000000    0.000000
     7        -0.437154006910546    2.498e-04    0.013357    0.000000    0.000000    0.000000
     8        -0.437154642083893    8.640e-05    0.013352    0.000000    0.000000    0.000000
     9        -0.437155979410039    5.940e-05    0.013352    0.000000    0.000000    0.000000
    10        -0.437154601546003    4.977e-05    0.013353    0.000000    0.000000    0.000000
    11        -0.437154697351911    4.750e-05    0.013353    0.000000    0.000000    0.000000
    12        -0.437154518052951    4.625e-05    0.013355    0.000000    0.000000    0.000000
    13        -0.437154474914737    4.544e-05    0.013356    0.000000    0.000000    0.000000
    14        -0.437155196492003    4.430e-05    0.013364    0.000000    0.000000    0.000000
    15        -0.437155429379524    4.092e-05    0.013393    0.000000    0.000000    0.000000
    16        -0.437155258521501    3.135e-05    0.013492    0.000000    0.000000    0.000000
    17        -0.437155044933910    1.680e-05    0.013559    0.000000    0.000000    0.000000
    18        -0.437154930985584    7.906e-06    0.013581    0.000000    0.000000    0.000000
    19        -0.437155169030302    3.432e-06    0.013587    0.000000    0.000000    0.000000
    20        -0.437155281341095    1.526e-06    0.013588    0.000000    0.000000    0.000000
    21        -0.437155286632129    5.819e-07    0.013588    0.000000    0.000000    0.000000
    22        -0.437155286694604    2.384e-07    0.013588    0.000000    0.000000    0.000000
    23        -0.437155286445631    1.133e-07    0.013588    0.000000    0.000000    0.000000
    24        -0.437155286118699    4.250e-08    0.013588    0.000000    0.000000    0.000000
    25        -0.437155286944391    2.121e-08    0.013588    0.000000    0.000000    0.000000
    26        -0.437155287305208    1.177e-08    0.013588    0.000000    0.000000    0.000000
    27        -0.437155287387740    9.568e-09    0.013588    0.000000    0.000000    0.000000
    28        -0.437155287383262    8.972e-09    0.013588    0.000000    0.000000    0.000000
    29        -0.437155287328783    8.517e-09    0.013588    0.000000    0.000000    0.000000
    30        -0.437155287218119    7.945e-09    0.013588    0.000000    0.000000    0.000000
    31        -0.437155287256800    6.520e-09    0.013589    0.000000    0.000000    0.000000
    32        -0.437155287397188    3.940e-09    0.013589    0.000000    0.000000    0.000000
    33        -0.437155287436103    1.692e-09    0.013589    0.000000    0.000000    0.000000
    34        -0.437155287454051    7.409e-10    0.013589    0.000000    0.000000    0.000000
    35        -0.437155287455774    3.302e-10    0.013589    0.000000    0.000000    0.000000
    36        -0.437155287453859    1.302e-10    0.013589    0.000000    0.000000    0.000000

      * MP2 total energy                      = -151.290938953832921
      * CCSD total energy                     = -151.311801372234896
      * CCSD(T) total energy                     = -151.324115302692746
*** Psi4 exiting successfully. Buy a developer a beer!
