                               Psi4 1.3.2 release

  ==> Input File <==

--------------------------------------------------------------------------
memory 4 GB

molecule  {
0 3
O   -1.503637377954   -0.001213585762    0.000000000000
H   -0.554641358387    0.156583212217    0.000000000000
H   -1.894831079399    0.877184441611    0.000000000000
O    1.657976409907   -0.063923174503    0.000000000000
}
set {
basis aug-cc-pvtz
reference uhf
e_convergence 10
scf_type pk
freeze_core true
}

set ccenergy {
e_convergence 10
r_convergence 10
}

e = energy('ccsd(t)')

print_out('Stephenergy {}'.format(e))

--------------------------------------------------------------------------

    Molecular point group: cs

    Geometry (in Angstrom), charge = 0, multiplicity = 3:

       Center              X                  Y                   Z               Mass
    ------------   -----------------  -----------------  -----------------  -----------------
         O           -1.503637377954    -0.001213585762     0.000000000000    15.994914619570
         H           -0.554641358387     0.156583212217     0.000000000000     1.007825032230
         H           -1.894831079399     0.877184441611     0.000000000000     1.007825032230
         O            1.657976409907    -0.063923174503     0.000000000000    15.994914619570

  Charge       = 0
  Multiplicity = 3
  Basis Set: AUG-CC-PVTZ
    Blend: AUG-CC-PVTZ

    Orbital Energies [Eh]
    ---------------------

    Alpha Occupied:

       1Ap   -20.733017     2Ap   -20.558693     3Ap    -1.442351
       4Ap    -1.343060     5Ap    -0.733132     1App   -0.732746
       6Ap    -0.710500     7Ap    -0.634414     8Ap    -0.574931
       2App   -0.501921

    Alpha Virtual:

       9Ap     0.034206    10Ap     0.053480    11Ap     0.128189
       3App    0.132935    12Ap     0.148146    13Ap     0.160771
      14Ap     0.183921     4App    0.186815    15Ap     0.214140
      16Ap     0.242051    17Ap     0.264308     5App    0.286448
      18Ap     0.303996     6App    0.320704    19Ap     0.364509
      20Ap     0.406416    21Ap     0.460460    22Ap     0.568606
       7App    0.602660    23Ap     0.608736    24Ap     0.627143
      25Ap     0.682011     8App    0.709556    26Ap     0.714775
       9App    0.736688    10App    0.748627    27Ap     0.750707
      28Ap     0.811716    11App    0.826069    29Ap     0.837126
      12App    0.890966    30Ap     0.892113    31Ap     0.922897
      32Ap     0.945190    13App    0.947699    33Ap     0.951363
      14App    0.971656    34Ap     0.978963    35Ap     1.043228
      36Ap     1.135949    15App    1.153737    37Ap     1.170122
      38Ap     1.185343    39Ap     1.260735    16App    1.295384
      40Ap     1.316604    17App    1.527416    41Ap     1.587531
      18App    1.598382    42Ap     1.715899    43Ap     1.809669
      44Ap     1.842787    45Ap     1.977547    19App    1.977770
      46Ap     1.978519    20App    2.013265    47Ap     2.018066
      21App    2.048495    48Ap     2.060983    22App    2.122634
      49Ap     2.152779    50Ap     2.176025    23App    2.212805
      24App    2.302861    51Ap     2.311027    52Ap     2.339036
      53Ap     2.414930    25App    2.441474    54Ap     2.458399
      55Ap     2.490916    26App    2.526963    56Ap     2.630397
      57Ap     2.710539    27App    2.727469    58Ap     2.735641
      59Ap     2.860841    60Ap     2.933504    28App    2.943335
      61Ap     3.695972    62Ap     3.892339    29App    4.036051
      30App    4.063061    63Ap     4.074331    31App    4.178331
      64Ap     4.209703    65Ap     4.265217    32App    4.303008
      33App    4.391310    66Ap     4.408316    34App    4.430068
      67Ap     4.445615    68Ap     4.602503    69Ap     4.778917
      70Ap     4.958581    35App    5.156579    71Ap     5.171669
      72Ap     5.299156    73Ap     5.391579    36App    5.526267
      74Ap     5.692419    75Ap     6.188779    37App    6.312412
      76Ap     6.312444    38App    6.375558    77Ap     6.378278
      39App    6.518265    78Ap     6.519736    79Ap     6.559538
      80Ap     6.637333    40App    6.735974    81Ap     6.814505
      41App    6.820105    82Ap     6.921470    42App    6.936960
      83Ap     6.961472    84Ap     7.050995    43App    7.148853
      44App    7.272058    45App    7.326390    85Ap     7.326998
      86Ap     7.364250    46App    7.435225    87Ap     7.648391
      88Ap     7.947123    89Ap     7.961417    90Ap     8.811406
      91Ap     9.517566    92Ap    16.316255

    Beta Occupied:

       1Ap   -20.654233     2Ap   -20.558822     3Ap    -1.343632
       4Ap    -1.099886     5Ap    -0.709721     6Ap    -0.579883
       7Ap    -0.541192     1App   -0.501964

    Beta Virtual:

       8Ap     0.034364     2App    0.049404     9Ap     0.049650
      10Ap     0.055183    11Ap     0.143824    12Ap     0.152974
       3App    0.161206    13Ap     0.178046    14Ap     0.207817
      15Ap     0.225528     4App    0.227223    16Ap     0.250774
      17Ap     0.265555     5App    0.286656    18Ap     0.306134
       6App    0.324448    19Ap     0.368410    20Ap     0.417315
      21Ap     0.461744    22Ap     0.572183    23Ap     0.627889
       7App    0.635055    24Ap     0.640481    25Ap     0.686815
      26Ap     0.715439     8App    0.721617     9App    0.739863
      10App    0.750305    27Ap     0.767211    28Ap     0.818087
      29Ap     0.868144    11App    0.869090    30Ap     0.920093
      12App    0.941819    31Ap     0.941880    13App    0.949808
      32Ap     0.952746    33Ap     0.970229    34Ap     1.017775
      14App    1.020185    35Ap     1.045474    15App    1.156880
      36Ap     1.163958    37Ap     1.173395    38Ap     1.216311
      39Ap     1.263883    16App    1.305981    40Ap     1.325321
      17App    1.528123    41Ap     1.589769    18App    1.599826
      42Ap     1.742054    43Ap     1.815105    44Ap     1.853621
      45Ap     1.986290    46Ap     2.015732    19App    2.015744
      20App    2.053817    47Ap     2.065709    21App    2.170787
      48Ap     2.176093    22App    2.179644    49Ap     2.193900
      50Ap     2.244779    23App    2.250052    24App    2.306295
      51Ap     2.316515    52Ap     2.361751    53Ap     2.419377
      25App    2.444186    54Ap     2.459198    55Ap     2.497219
      26App    2.535398    56Ap     2.637540    57Ap     2.727559
      27App    2.728795    58Ap     2.739082    59Ap     2.862675
      60Ap     2.937943    28App    2.943960    61Ap     3.696654
      62Ap     3.894692    29App    4.039019    30App    4.146943
      63Ap     4.194357    64Ap     4.244174    31App    4.262775
      65Ap     4.276325    32App    4.303066    33App    4.391380
      66Ap     4.411912    34App    4.430735    67Ap     4.490071
      68Ap     4.605035    69Ap     4.780563    70Ap     4.960557
      35App    5.156565    71Ap     5.171962    72Ap     5.299393
      73Ap     5.392813    36App    5.526328    74Ap     5.692769
      75Ap     6.190031    76Ap     6.421263    37App    6.421267
      38App    6.450746    77Ap     6.453490    78Ap     6.534755
      39App    6.572138    79Ap     6.600403    80Ap     6.682265
      40App    6.741937    81Ap     6.923383    41App    7.005181
      82Ap     7.006834    42App    7.046232    83Ap     7.068326
      84Ap     7.130746    43App    7.151330    44App    7.272294
      45App    7.327112    85Ap     7.327298    86Ap     7.365045
      46App    7.435634    87Ap     7.649237    88Ap     7.948136
      89Ap     7.961770    90Ap     8.812943    91Ap     9.592570
      92Ap    16.316526

    Final Occupation by Irrep:
             Ap   App
    DOCC [     7,    1 ]
    SOCC [     1,    1 ]

  @UHF Final Energy:  -150.87449238792524

   => Energetics <=

    Nuclear Repulsion Energy =             22.9165626292733826
    One-Electron Energy =                -253.6280112812090124
    Two-Electron Energy =                  79.8369562640103823
    Total Energy =                       -150.8744923879252440

  UHF NO Occupations:
  HONO-2 :    7 Ap 1.9970283
  HONO-1 :    2App 1.0000000
  HONO-0 :    8 Ap 1.0000000
  LUNO+0 :    9 Ap 0.0029717
  LUNO+1 :   10 Ap 0.0017155
  LUNO+2 :   11 Ap 0.0000024
  LUNO+3 :   12 Ap 0.0000017

Computation Completed

Properties will be evaluated at   0.000000,   0.000000,   0.000000 [a0]

Properties computed using the SCF density matrix

  Nuclear Dipole Moment: [e a0]
     X:    -2.2956      Y:     0.9688      Z:     0.0000

  Electronic Dipole Moment: [e a0]
     X:     2.7570      Y:    -0.2936      Z:     0.0000

  Dipole Moment: [e a0]
     X:     0.4614      Y:     0.6752      Z:     0.0000     Total:     0.8178

  Dipole Moment: [D]
     X:     1.1728      Y:     1.7161      Z:     0.0000     Total:     2.0786

*** tstop() called on c4-4.compute.lan at Tue Mar  9 15:35:37 2021
Module time:
	user time   =      63.38 seconds =       1.06 minutes
	system time =       1.01 seconds =       0.02 minutes
	total time  =          6 seconds =       0.10 minutes
Total time:
	user time   =      63.38 seconds =       1.06 minutes
	system time =       1.01 seconds =       0.02 minutes
	total time  =          6 seconds =       0.10 minutes
 MINTS: Wrapper to libmints.
   by Justin Turney

   Calculation information:
      Number of threads:                12
      Number of atoms:                   4
      Number of AO shells:              46
      Number of SO shells:              46
      Number of primitives:             82
      Number of atomic orbitals:       160
      Number of basis functions:       138

      Number of irreps:                  2
      Integral cutoff                 0.00e+00
      Number of functions per irrep: [  92   46 ]

 OEINTS: Overlap, kinetic, potential, dipole, and quadrupole integrals
         stored in file 35.

      Computing two-electron integrals...done
      Computed 22933749 non-zero two-electron integrals.
        Stored in file 33.

*** tstart() called on c4-4.compute.lan
*** at Tue Mar  9 15:35:40 2021

	Wfn Parameters:
	--------------------
	Wavefunction         = CCSD_T
	Number of irreps     = 2
	Number of MOs        = 138
	Number of active MOs = 136
	AO-Basis             = NONE
	Semicanonical        = false
	Reference            = UHF
	Print Level          = 1

	IRREP	# MOs	# FZDC	# DOCC	# SOCC	# VIRT	# FZVR
	-----	-----	------	------	------	------	------
	 Ap	   92	    2	    5	    1	    84	    0
	 App	   46	    0	    1	    1	    44	    0
	Transforming integrals...
	IWL integrals will be deleted.
	(OO|OO)...
	Presorting SO-basis two-electron integrals.
	Sorting File: SO Ints (nn|nn) nbuckets = 1
	Transforming the one-electron integrals and constructing Fock matrices
	Starting AA/AB first half-transformation.
	Sorting AA/AB half-transformed integrals.
	Starting BB first half-transformation.
	Sorting BB half-transformed integrals.
	First half integral transformation complete.
	Starting AA second half-transformation.
	Starting AB second half-transformation.
	Starting BB second half-transformation.
	Two-electron integral transformation complete.
	(OO|OV)...
	Starting AA second half-transformation.
	Starting AB second half-transformation.
	Starting BB second half-transformation.
	Two-electron integral transformation complete.
	(OO|VV)...
	Starting AA second half-transformation.
	Starting AB second half-transformation.
	Starting BB second half-transformation.
	Two-electron integral transformation complete.
	(OV|OO)...
	Starting AA/AB first half-transformation.
	Sorting AA/AB half-transformed integrals.
	Starting BB first half-transformation.
	Sorting BB half-transformed integrals.
	First half integral transformation complete.
	Starting AA second half-transformation.
	Starting AB second half-transformation.
	Starting BB second half-transformation.
	Two-electron integral transformation complete.
	(OV|OV)...
	Starting AA second half-transformation.
	Starting AB second half-transformation.
	Starting BB second half-transformation.
	Two-electron integral transformation complete.
	(OV|VV)...
	Starting AA second half-transformation.
	Starting AB second half-transformation.
	Starting BB second half-transformation.
	Two-electron integral transformation complete.
	(VV|OO)...
	Starting AA/AB first half-transformation.
	Sorting AA/AB half-transformed integrals.
	Starting BB first half-transformation.
	Sorting BB half-transformed integrals.
	First half integral transformation complete.
	Starting AA second half-transformation.
	Starting AB second half-transformation.
	Starting BB second half-transformation.
	Two-electron integral transformation complete.
	(VV|OV)...
	Starting AA second half-transformation.
	Starting AB second half-transformation.
	Starting BB second half-transformation.
	Two-electron integral transformation complete.
	(VV|VV)...
	Starting AA second half-transformation.
	Starting AB second half-transformation.
	Starting BB second half-transformation.
	Two-electron integral transformation complete.
	Frozen core energy     =   -125.86126616185405

	Size of irrep 0 of <AB|CD> integrals:     19.643 (MW) /    157.141 (MB)
	Size of irrep 1 of <AB|CD> integrals:     13.660 (MW) /    109.283 (MB)
	Total:                                    33.303 (MW) /    266.424 (MB)

	Size of irrep 0 of <ab|cd> integrals:     20.794 (MW) /    166.349 (MB)
	Size of irrep 1 of <ab|cd> integrals:     14.631 (MW) /    117.045 (MB)
	Total:                                    35.424 (MW) /    283.394 (MB)

	Size of irrep 0 of <Ab|Cd> integrals:     83.174 (MW) /    665.395 (MB)
	Size of irrep 1 of <Ab|Cd> integrals:     56.550 (MW) /    452.403 (MB)
	Total:                                   139.725 (MW) /   1117.798 (MB)

	Size of irrep 0 of <IA|BC> integrals:      5.323 (MW) /     42.586 (MB)
	Size of irrep 1 of <IA|BC> integrals:      3.193 (MW) /     25.547 (MB)
	Total:                                     8.517 (MW) /     68.133 (MB)

	Size of irrep 0 of <ia|bc> integrals:      4.348 (MW) /     34.780 (MB)
	Size of irrep 1 of <ia|bc> integrals:      2.372 (MW) /     18.972 (MB)
	Total:                                     6.719 (MW) /     53.752 (MB)

	Size of irrep 0 of <Ia|Bc> integrals:      5.472 (MW) /     43.776 (MB)
	Size of irrep 1 of <Ia|Bc> integrals:      3.309 (MW) /     26.470 (MB)
	Total:                                     8.781 (MW) /     70.246 (MB)

	Size of irrep 0 of <iA|bC> integrals:      4.232 (MW) /     33.853 (MB)
	Size of irrep 1 of <iA|bC> integrals:      2.286 (MW) /     18.289 (MB)
	Total:                                     6.518 (MW) /     52.142 (MB)

	Size of irrep 0 of tIjAb amplitudes:       0.292 (MW) /      2.335 (MB)
	Size of irrep 1 of tIjAb amplitudes:       0.120 (MW) /      0.963 (MB)
	Total:                                     0.412 (MW) /      3.297 (MB)

	Nuclear Rep. energy          =     22.91656262927338
	SCF energy                   =   -150.87449238792524
	One-electron energy          =    -84.41024412383621
	Two-electron (AA) energy     =     10.13782176536299
	Two-electron (BB) energy     =      5.39301195905650
	Two-electron (AB) energy     =     20.94962154407106
	Two-electron energy          =     36.48045526849055
	Reference energy             =   -150.87449238792630

*** tstop() called on c4-4.compute.lan at Tue Mar  9 15:36:14 2021
Module time:
	user time   =     106.21 seconds =       1.77 minutes
	system time =      18.44 seconds =       0.31 minutes
	total time  =         34 seconds =       0.57 minutes
Total time:
	user time   =     175.83 seconds =       2.93 minutes
	system time =      20.08 seconds =       0.33 minutes
	total time  =         43 seconds =       0.72 minutes
            **************************
            *                        *
            *        CCENERGY        *
            *                        *
            **************************

    Nuclear Rep. energy (wfn)     =   22.916562629273383
    SCF energy          (wfn)     = -150.874492387925244
    Reference energy    (file100) = -150.874492387926296

    Input parameters:
    -----------------
    Wave function   =     CCSD_T
    Reference wfn   =     UHF
    Brueckner       =     No
    Memory (Mbytes) =     4000.0
    Maxiter         =     50
    R_Convergence   =     1.0e-10
    E_Convergence   =     1.0e-10
    Restart         =     Yes
    DIIS            =     Yes
    AO Basis        =     NONE
    ABCD            =     NEW
    Cache Level     =     2
    Cache Type      =     LRU
    Print Level     =     1
    Num. of threads =     12
    # Amps to Print =     10
    Print MP2 Amps? =     No
    Analyze T2 Amps =     No
    Print Pair Ener =     No
    Local CC        =     No
    SCS-MP2         =     False
    SCSN-MP2        =     False
    SCS-CCSD        =     False

MP2 correlation energy -0.4165925577631021
                Solving CC Amplitude Equations
                ------------------------------
  Iter             Energy              RMS        T1Diag      D1Diag    New D1Diag    D2Diag
  ----     ---------------------    ---------   ----------  ----------  ----------   --------
     0        -0.416592557763102    0.000e+00    0.000000    0.000000    0.000000    0.000000
     1        -0.427317518497512    5.687e-02    0.010550    0.000000    0.000000    0.000000
     2        -0.435403871301654    1.689e-02    0.011030    0.000000    0.000000    0.000000
     3        -0.437524809524470    8.572e-03    0.012900    0.000000    0.000000    0.000000
     4        -0.437398983396795    2.535e-03    0.013267    0.000000    0.000000    0.000000
     5        -0.437384526625908    1.320e-03    0.013424    0.000000    0.000000    0.000000
     6        -0.437411766944452    5.147e-04    0.013446    0.000000    0.000000    0.000000
     7        -0.437416394782938    2.646e-04    0.013440    0.000000    0.000000    0.000000
     8        -0.437416994336604    9.962e-05    0.013436    0.000000    0.000000    0.000000
     9        -0.437418364630510    7.437e-05    0.013437    0.000000    0.000000    0.000000
    10        -0.437416806614872    6.428e-05    0.013438    0.000000    0.000000    0.000000
    11        -0.437416953201790    6.143e-05    0.013439    0.000000    0.000000    0.000000
    12        -0.437416663928433    5.974e-05    0.013441    0.000000    0.000000    0.000000
    13        -0.437416655520828    5.860e-05    0.013445    0.000000    0.000000    0.000000
    14        -0.437417835055395    5.671e-05    0.013463    0.000000    0.000000    0.000000
    15        -0.437418215409853    5.014e-05    0.013536    0.000000    0.000000    0.000000
    16        -0.437417991141932    3.349e-05    0.013677    0.000000    0.000000    0.000000
    17        -0.437417644778129    1.616e-05    0.013746    0.000000    0.000000    0.000000
    18        -0.437417515149089    7.577e-06    0.013763    0.000000    0.000000    0.000000
    19        -0.437417774350468    3.350e-06    0.013768    0.000000    0.000000    0.000000
    20        -0.437417885988252    1.501e-06    0.013769    0.000000    0.000000    0.000000
    21        -0.437417893951137    5.917e-07    0.013769    0.000000    0.000000    0.000000
    22        -0.437417895232328    2.811e-07    0.013769    0.000000    0.000000    0.000000
    23        -0.437417894119122    1.460e-07    0.013769    0.000000    0.000000    0.000000
    24        -0.437417893438643    6.062e-08    0.013769    0.000000    0.000000    0.000000
    25        -0.437417894403118    3.316e-08    0.013769    0.000000    0.000000    0.000000
    26        -0.437417894863175    2.578e-08    0.013769    0.000000    0.000000    0.000000
    27        -0.437417895022248    2.415e-08    0.013769    0.000000    0.000000    0.000000
    28        -0.437417894969337    2.340e-08    0.013769    0.000000    0.000000    0.000000
    29        -0.437417894804173    2.273e-08    0.013769    0.000000    0.000000    0.000000
    30        -0.437417894536225    2.163e-08    0.013769    0.000000    0.000000    0.000000
    31        -0.437417894737635    1.829e-08    0.013769    0.000000    0.000000    0.000000
    32        -0.437417895084292    9.573e-09    0.013769    0.000000    0.000000    0.000000
    33        -0.437417895186741    4.190e-09    0.013769    0.000000    0.000000    0.000000
    34        -0.437417895238851    1.710e-09    0.013769    0.000000    0.000000    0.000000
    35        -0.437417895245558    6.717e-10    0.013769    0.000000    0.000000    0.000000
    36        -0.437417895245333    2.876e-10    0.013769    0.000000    0.000000    0.000000

      * MP2 total energy                      = -151.291084945689391
      * CCSD total energy                     = -151.311910283170960
      * CCSD(T) total energy                     = -151.324262835725023
*** Psi4 exiting successfully. Buy a developer a beer!
