                               Psi4 1.3.2 release

  ==> Input File <==

--------------------------------------------------------------------------
memory 4 GB

molecule  {
0 3
O   -1.524700329696   -0.028676944082    0.000000000000
H   -0.562096927496   -0.013032326982    0.000000000000
H   -1.777683914563    0.897305706205    0.000000000000
O    1.672127793902   -0.027040317818    0.000000000000
}
set {
basis aug-cc-pvtz
reference uhf
e_convergence 10
scf_type pk
freeze_core true
}

set ccenergy {
e_convergence 10
r_convergence 10
}

e = energy('ccsd(t)')

print_out('Stephenergy {}'.format(e))

--------------------------------------------------------------------------

    Molecular point group: cs

    Geometry (in Angstrom), charge = 0, multiplicity = 3:

       Center              X                  Y                   Z               Mass
    ------------   -----------------  -----------------  -----------------  -----------------
         O           -1.524700329696    -0.028676944082     0.000000000000    15.994914619570
         H           -0.562096927496    -0.013032326982     0.000000000000     1.007825032230
         H           -1.777683914563     0.897305706205     0.000000000000     1.007825032230
         O            1.672127793902    -0.027040317818     0.000000000000    15.994914619570

  Charge       = 0
  Multiplicity = 3
  Basis Set: AUG-CC-PVTZ
    Blend: AUG-CC-PVTZ

    Orbital Energies [Eh]
    ---------------------

    Alpha Occupied:

       1Ap   -20.734827     2Ap   -20.558433     3Ap    -1.444124
       4Ap    -1.343208     5Ap    -0.734674     1App   -0.734530
       6Ap    -0.710074     7Ap    -0.636856     8Ap    -0.574834
       2App   -0.501755

    Alpha Virtual:

       9Ap     0.034595    10Ap     0.053261    11Ap     0.127563
       3App    0.131524    12Ap     0.148057    13Ap     0.161239
      14Ap     0.183420     4App    0.186131    15Ap     0.211302
      16Ap     0.241491    17Ap     0.272090     5App    0.282390
      18Ap     0.293108     6App    0.323318    19Ap     0.372010
      20Ap     0.392427    21Ap     0.460294    22Ap     0.558675
       7App    0.600116    23Ap     0.608624    24Ap     0.644222
      25Ap     0.668603     8App    0.712051    26Ap     0.712154
       9App    0.734670    10App    0.747103    27Ap     0.765437
      28Ap     0.796612    11App    0.824724    29Ap     0.851638
      30Ap     0.865519    12App    0.882910    31Ap     0.922738
      13App    0.941984    32Ap     0.943908    33Ap     0.956707
      14App    0.983839    34Ap     0.986498    35Ap     1.043681
      36Ap     1.127820    37Ap     1.169008    15App    1.178250
      38Ap     1.193609    16App    1.257704    39Ap     1.272183
      40Ap     1.322454    17App    1.528714    41Ap     1.555019
      18App    1.601096    42Ap     1.687704    43Ap     1.818716
      44Ap     1.825204    19App    1.975669    45Ap     1.975711
      46Ap     1.997909    20App    2.011136    47Ap     2.018086
      21App    2.047759    48Ap     2.060348    22App    2.121576
      49Ap     2.163092    50Ap     2.164557    23App    2.209582
      24App    2.294424    51Ap     2.298745    52Ap     2.329132
      53Ap     2.413709    25App    2.448091    54Ap     2.461680
      26App    2.522400    55Ap     2.535156    56Ap     2.629065
      57Ap     2.666911    27App    2.728728    58Ap     2.749928
      59Ap     2.867022    60Ap     2.942942    28App    2.946529
      61Ap     3.700456    62Ap     3.891603    29App    4.035788
      30App    4.058289    63Ap     4.076508    31App    4.172223
      64Ap     4.200801    65Ap     4.274704    32App    4.300070
      66Ap     4.375971    33App    4.393775    67Ap     4.436927
      34App    4.440807    68Ap     4.576901    69Ap     4.784530
      70Ap     4.962712    35App    5.157858    71Ap     5.182701
      72Ap     5.308897    73Ap     5.376763    36App    5.529471
      74Ap     5.692317    75Ap     6.198340    37App    6.310334
      76Ap     6.310377    38App    6.372481    77Ap     6.375199
      39App    6.518479    78Ap     6.526350    79Ap     6.554701
      80Ap     6.632984    40App    6.724513    81Ap     6.812420
      41App    6.818445    82Ap     6.914545    42App    6.933473
      83Ap     6.966750    84Ap     7.049257    43App    7.147979
      44App    7.275977    85Ap     7.326165    45App    7.329073
      86Ap     7.359405    46App    7.440919    87Ap     7.660931
      88Ap     7.948455    89Ap     7.968232    90Ap     8.815176
      91Ap     9.377747    92Ap    16.555637

    Beta Occupied:

       1Ap   -20.656049     2Ap   -20.558570     3Ap    -1.343797
       4Ap    -1.101669     5Ap    -0.709140     6Ap    -0.581232
       7Ap    -0.542145     1App   -0.501810

    Beta Virtual:

       8Ap     0.034228     9Ap     0.046080     2App    0.047704
      10Ap     0.057700    11Ap     0.144156    12Ap     0.150992
       3App    0.160369    13Ap     0.179911    14Ap     0.210221
      15Ap     0.217716     4App    0.225933    16Ap     0.251119
      17Ap     0.274079     5App    0.282728    18Ap     0.295363
       6App    0.326945    19Ap     0.375789    20Ap     0.402982
      21Ap     0.461008    22Ap     0.561562     7App    0.632435
      23Ap     0.638939    24Ap     0.647301    25Ap     0.671607
      26Ap     0.712853     8App    0.725858     9App    0.735805
      10App    0.748510    27Ap     0.783967    28Ap     0.808816
      29Ap     0.857872    11App    0.867424    30Ap     0.918200
      12App    0.935408    31Ap     0.943578    13App    0.949714
      32Ap     0.953906    33Ap     0.974226    34Ap     1.015803
      14App    1.025062    35Ap     1.047538    36Ap     1.152980
      37Ap     1.177180    15App    1.181517    38Ap     1.219753
      16App    1.268825    39Ap     1.274225    40Ap     1.333343
      17App    1.529561    41Ap     1.560853    18App    1.602679
      42Ap     1.714933    43Ap     1.823902    44Ap     1.832094
      45Ap     2.005774    19App    2.013777    46Ap     2.014016
      20App    2.052404    47Ap     2.065439    21App    2.169146
      22App    2.179495    48Ap     2.179757    49Ap     2.203141
      50Ap     2.225396    23App    2.247531    24App    2.296297
      51Ap     2.315402    52Ap     2.343119    53Ap     2.421338
      25App    2.450563    54Ap     2.462498    26App    2.530989
      55Ap     2.542511    56Ap     2.635128    57Ap     2.677992
      27App    2.729856    58Ap     2.756501    59Ap     2.871732
      60Ap     2.945644    28App    2.947216    61Ap     3.700896
      62Ap     3.894372    29App    4.035995    30App    4.146180
      63Ap     4.181116    64Ap     4.244110    31App    4.254272
      65Ap     4.295721    32App    4.300388    66Ap     4.390867
      33App    4.393968    34App    4.442361    67Ap     4.467725
      68Ap     4.577826    69Ap     4.785960    70Ap     4.964932
      35App    5.157843    71Ap     5.183217    72Ap     5.309118
      73Ap     5.377784    36App    5.529552    74Ap     5.692955
      75Ap     6.198802    37App    6.419295    76Ap     6.419321
      38App    6.447911    77Ap     6.450712    78Ap     6.532704
      39App    6.573473    79Ap     6.604415    80Ap     6.679191
      40App    6.728759    81Ap     6.916915    41App    7.004557
      82Ap     7.005574    42App    7.041734    83Ap     7.071154
      84Ap     7.129628    43App    7.150262    44App    7.276452
      85Ap     7.326284    45App    7.329894    86Ap     7.359883
      46App    7.441358    87Ap     7.662277    88Ap     7.948832
      89Ap     7.968366    90Ap     8.817673    91Ap     9.452282
      92Ap    16.556196

    Final Occupation by Irrep:
             Ap   App
    DOCC [     7,    1 ]
    SOCC [     1,    1 ]

  @UHF Final Energy:  -150.87449038127440

   => Energetics <=

    Nuclear Repulsion Energy =             22.8300754828465813
    One-Electron Energy =                -253.4414051649214628
    Two-Electron Energy =                  79.7368393008004830
    Total Energy =                       -150.8744903812743985

  UHF NO Occupations:
  HONO-2 :    7 Ap 1.9970298
  HONO-1 :    8 Ap 1.0000000
  HONO-0 :    2App 1.0000000
  LUNO+0 :    9 Ap 0.0029702
  LUNO+1 :   10 Ap 0.0017135
  LUNO+2 :   11 Ap 0.0000024
  LUNO+3 :   12 Ap 0.0000018

Computation Completed

Properties will be evaluated at   0.000000,   0.000000,   0.000000 [a0]

Properties computed using the SCF density matrix

  Nuclear Dipole Moment: [e a0]
     X:    -2.1928      Y:     0.8287      Z:     0.0000

  Electronic Dipole Moment: [e a0]
     X:     2.7580      Y:    -0.2127      Z:     0.0000

  Dipole Moment: [e a0]
     X:     0.5652      Y:     0.6160      Z:     0.0000     Total:     0.8360

  Dipole Moment: [D]
     X:     1.4367      Y:     1.5656      Z:     0.0000     Total:     2.1249

*** tstop() called on d3-17.compute.lan at Tue Mar  9 14:51:35 2021
Module time:
	user time   =      56.19 seconds =       0.94 minutes
	system time =       2.35 seconds =       0.04 minutes
	total time  =          6 seconds =       0.10 minutes
Total time:
	user time   =      56.19 seconds =       0.94 minutes
	system time =       2.35 seconds =       0.04 minutes
	total time  =          6 seconds =       0.10 minutes
 MINTS: Wrapper to libmints.
   by Justin Turney

   Calculation information:
      Number of threads:                12
      Number of atoms:                   4
      Number of AO shells:              46
      Number of SO shells:              46
      Number of primitives:             82
      Number of atomic orbitals:       160
      Number of basis functions:       138

      Number of irreps:                  2
      Integral cutoff                 0.00e+00
      Number of functions per irrep: [  92   46 ]

 OEINTS: Overlap, kinetic, potential, dipole, and quadrupole integrals
         stored in file 35.

      Computing two-electron integrals...done
      Computed 22938049 non-zero two-electron integrals.
        Stored in file 33.

*** tstart() called on d3-17.compute.lan
*** at Tue Mar  9 14:51:39 2021

	Wfn Parameters:
	--------------------
	Wavefunction         = CCSD_T
	Number of irreps     = 2
	Number of MOs        = 138
	Number of active MOs = 136
	AO-Basis             = NONE
	Semicanonical        = false
	Reference            = UHF
	Print Level          = 1

	IRREP	# MOs	# FZDC	# DOCC	# SOCC	# VIRT	# FZVR
	-----	-----	------	------	------	------	------
	 Ap	   92	    2	    5	    1	    84	    0
	 App	   46	    0	    1	    1	    44	    0
	Transforming integrals...
	IWL integrals will be deleted.
	(OO|OO)...
	Presorting SO-basis two-electron integrals.
	Sorting File: SO Ints (nn|nn) nbuckets = 1
	Transforming the one-electron integrals and constructing Fock matrices
	Starting AA/AB first half-transformation.
	Sorting AA/AB half-transformed integrals.
	Starting BB first half-transformation.
	Sorting BB half-transformed integrals.
	First half integral transformation complete.
	Starting AA second half-transformation.
	Starting AB second half-transformation.
	Starting BB second half-transformation.
	Two-electron integral transformation complete.
	(OO|OV)...
	Starting AA second half-transformation.
	Starting AB second half-transformation.
	Starting BB second half-transformation.
	Two-electron integral transformation complete.
	(OO|VV)...
	Starting AA second half-transformation.
	Starting AB second half-transformation.
	Starting BB second half-transformation.
	Two-electron integral transformation complete.
	(OV|OO)...
	Starting AA/AB first half-transformation.
	Sorting AA/AB half-transformed integrals.
	Starting BB first half-transformation.
	Sorting BB half-transformed integrals.
	First half integral transformation complete.
	Starting AA second half-transformation.
	Starting AB second half-transformation.
	Starting BB second half-transformation.
	Two-electron integral transformation complete.
	(OV|OV)...
	Starting AA second half-transformation.
	Starting AB second half-transformation.
	Starting BB second half-transformation.
	Two-electron integral transformation complete.
	(OV|VV)...
	Starting AA second half-transformation.
	Starting AB second half-transformation.
	Starting BB second half-transformation.
	Two-electron integral transformation complete.
	(VV|OO)...
	Starting AA/AB first half-transformation.
	Sorting AA/AB half-transformed integrals.
	Starting BB first half-transformation.
	Sorting BB half-transformed integrals.
	First half integral transformation complete.
	Starting AA second half-transformation.
	Starting AB second half-transformation.
	Starting BB second half-transformation.
	Two-electron integral transformation complete.
	(VV|OV)...
	Starting AA second half-transformation.
	Starting AB second half-transformation.
	Starting BB second half-transformation.
	Two-electron integral transformation complete.
	(VV|VV)...
	Starting AA second half-transformation.
	Starting AB second half-transformation.
	Starting BB second half-transformation.
	Two-electron integral transformation complete.
	Frozen core energy     =   -125.81775934557490

	Size of irrep 0 of <AB|CD> integrals:     19.643 (MW) /    157.141 (MB)
	Size of irrep 1 of <AB|CD> integrals:     13.660 (MW) /    109.283 (MB)
	Total:                                    33.303 (MW) /    266.424 (MB)

	Size of irrep 0 of <ab|cd> integrals:     20.794 (MW) /    166.349 (MB)
	Size of irrep 1 of <ab|cd> integrals:     14.631 (MW) /    117.045 (MB)
	Total:                                    35.424 (MW) /    283.394 (MB)

	Size of irrep 0 of <Ab|Cd> integrals:     83.174 (MW) /    665.395 (MB)
	Size of irrep 1 of <Ab|Cd> integrals:     56.550 (MW) /    452.403 (MB)
	Total:                                   139.725 (MW) /   1117.798 (MB)

	Size of irrep 0 of <IA|BC> integrals:      5.323 (MW) /     42.586 (MB)
	Size of irrep 1 of <IA|BC> integrals:      3.193 (MW) /     25.547 (MB)
	Total:                                     8.517 (MW) /     68.133 (MB)

	Size of irrep 0 of <ia|bc> integrals:      4.348 (MW) /     34.780 (MB)
	Size of irrep 1 of <ia|bc> integrals:      2.372 (MW) /     18.972 (MB)
	Total:                                     6.719 (MW) /     53.752 (MB)

	Size of irrep 0 of <Ia|Bc> integrals:      5.472 (MW) /     43.776 (MB)
	Size of irrep 1 of <Ia|Bc> integrals:      3.309 (MW) /     26.470 (MB)
	Total:                                     8.781 (MW) /     70.246 (MB)

	Size of irrep 0 of <iA|bC> integrals:      4.232 (MW) /     33.853 (MB)
	Size of irrep 1 of <iA|bC> integrals:      2.286 (MW) /     18.289 (MB)
	Total:                                     6.518 (MW) /     52.142 (MB)

	Size of irrep 0 of tIjAb amplitudes:       0.292 (MW) /      2.335 (MB)
	Size of irrep 1 of tIjAb amplitudes:       0.120 (MW) /      0.963 (MB)
	Total:                                     0.412 (MW) /      3.297 (MB)

	Nuclear Rep. energy          =     22.83007548284658
	SCF energy                   =   -150.87449038127440
	One-electron energy          =    -84.31376493199437
	Two-electron (AA) energy     =     10.11909405561423
	Two-electron (BB) energy     =      5.38469842679589
	Two-electron (AB) energy     =     20.92316593103663
	Two-electron energy          =     36.42695841344674
	Reference energy             =   -150.87449038127596

*** tstop() called on d3-17.compute.lan at Tue Mar  9 14:52:29 2021
Module time:
	user time   =     318.73 seconds =       5.31 minutes
	system time =      23.30 seconds =       0.39 minutes
	total time  =         50 seconds =       0.83 minutes
Total time:
	user time   =     382.24 seconds =       6.37 minutes
	system time =      26.52 seconds =       0.44 minutes
	total time  =         60 seconds =       1.00 minutes
            **************************
            *                        *
            *        CCENERGY        *
            *                        *
            **************************

    Nuclear Rep. energy (wfn)     =   22.830075482846581
    SCF energy          (wfn)     = -150.874490381274398
    Reference energy    (file100) = -150.874490381275962

    Input parameters:
    -----------------
    Wave function   =     CCSD_T
    Reference wfn   =     UHF
    Brueckner       =     No
    Memory (Mbytes) =     4000.0
    Maxiter         =     50
    R_Convergence   =     1.0e-10
    E_Convergence   =     1.0e-10
    Restart         =     Yes
    DIIS            =     Yes
    AO Basis        =     NONE
    ABCD            =     NEW
    Cache Level     =     2
    Cache Type      =     LRU
    Print Level     =     1
    Num. of threads =     12
    # Amps to Print =     10
    Print MP2 Amps? =     No
    Analyze T2 Amps =     No
    Print Pair Ener =     No
    Local CC        =     No
    SCS-MP2         =     False
    SCSN-MP2        =     False
    SCS-CCSD        =     False

MP2 correlation energy -0.4165046600521385
                Solving CC Amplitude Equations
                ------------------------------
  Iter             Energy              RMS        T1Diag      D1Diag    New D1Diag    D2Diag
  ----     ---------------------    ---------   ----------  ----------  ----------   --------
     0        -0.416504660052138    0.000e+00    0.000000    0.000000    0.000000    0.000000
     1        -0.427256326240272    5.678e-02    0.010526    0.000000    0.000000    0.000000
     2        -0.435341338111267    1.686e-02    0.011016    0.000000    0.000000    0.000000
     3        -0.437453469796698    8.555e-03    0.012882    0.000000    0.000000    0.000000
     4        -0.437328364401730    2.531e-03    0.013248    0.000000    0.000000    0.000000
     5        -0.437313463265142    1.323e-03    0.013404    0.000000    0.000000    0.000000
     6        -0.437340696138505    5.149e-04    0.013427    0.000000    0.000000    0.000000
     7        -0.437345488538441    2.653e-04    0.013422    0.000000    0.000000    0.000000
     8        -0.437346059706931    9.514e-05    0.013417    0.000000    0.000000    0.000000
     9        -0.437347454224736    6.793e-05    0.013418    0.000000    0.000000    0.000000
    10        -0.437345923571612    5.680e-05    0.013419    0.000000    0.000000    0.000000
    11        -0.437346046637275    5.367e-05    0.013420    0.000000    0.000000    0.000000
    12        -0.437345852065384    5.200e-05    0.013421    0.000000    0.000000    0.000000
    13        -0.437345836580136    5.107e-05    0.013423    0.000000    0.000000    0.000000
    14        -0.437346722229097    4.982e-05    0.013433    0.000000    0.000000    0.000000
    15        -0.437347044919393    4.561e-05    0.013476    0.000000    0.000000    0.000000
    16        -0.437346820834521    3.324e-05    0.013591    0.000000    0.000000    0.000000
    17        -0.437346534279678    1.701e-05    0.013663    0.000000    0.000000    0.000000
    18        -0.437346391402922    7.997e-06    0.013684    0.000000    0.000000    0.000000
    19        -0.437346637325164    3.513e-06    0.013689    0.000000    0.000000    0.000000
    20        -0.437346755108373    1.549e-06    0.013690    0.000000    0.000000    0.000000
    21        -0.437346761721300    6.138e-07    0.013691    0.000000    0.000000    0.000000
    22        -0.437346762623200    2.761e-07    0.013691    0.000000    0.000000    0.000000
    23        -0.437346761982099    1.381e-07    0.013691    0.000000    0.000000    0.000000
    24        -0.437346761260107    5.273e-08    0.013691    0.000000    0.000000    0.000000
    25        -0.437346762145943    2.609e-08    0.013691    0.000000    0.000000    0.000000
    26        -0.437346762569935    1.803e-08    0.013691    0.000000    0.000000    0.000000
    27        -0.437346762693320    1.632e-08    0.013691    0.000000    0.000000    0.000000
    28        -0.437346762671776    1.572e-08    0.013691    0.000000    0.000000    0.000000
    29        -0.437346762583175    1.531e-08    0.013691    0.000000    0.000000    0.000000
    30        -0.437346762406204    1.481e-08    0.013691    0.000000    0.000000    0.000000
    31        -0.437346762437871    1.330e-08    0.013691    0.000000    0.000000    0.000000
    32        -0.437346762672347    8.447e-09    0.013691    0.000000    0.000000    0.000000
    33        -0.437346762756997    3.905e-09    0.013691    0.000000    0.000000    0.000000
    34        -0.437346762809572    1.666e-09    0.013691    0.000000    0.000000    0.000000
    35        -0.437346762816087    6.585e-10    0.013691    0.000000    0.000000    0.000000
    36        -0.437346762815026    2.638e-10    0.013691    0.000000    0.000000    0.000000

      * MP2 total energy                      = -151.290995041328102
      * CCSD total energy                     = -151.311837144090106
      * CCSD(T) total energy                     = -151.324181433159055
*** Psi4 exiting successfully. Buy a developer a beer!
