                               Psi4 1.3.2 release

  ==> Input File <==

--------------------------------------------------------------------------
memory 4 GB

molecule  {
0 3
O    0.000000000000    0.000000000000    1.270170376200
H    0.000000000000   -0.759829054300    1.859547910400
H   -0.000000000000    0.759829054300    1.859547910400
O    0.000000000000   -0.000000000000   -1.504507223600
}
set {
basis aug-cc-pvtz
reference uhf
e_convergence 10
scf_type pk
freeze_core true
}

set ccenergy {
e_convergence 10
r_convergence 10
}

e = energy('ccsd(t)')

print_out('Stephenergy {}'.format(e))

--------------------------------------------------------------------------

    Molecular point group: c2v

    Geometry (in Angstrom), charge = 0, multiplicity = 3:

       Center              X                  Y                   Z               Mass
    ------------   -----------------  -----------------  -----------------  -----------------
         O            0.000000000000     0.000000000000     1.270170376227    15.994914619570
         H            0.000000000000    -0.759829054300     1.859547910427     1.007825032230
         H           -0.000000000000     0.759829054300     1.859547910427     1.007825032230
         O            0.000000000000     0.000000000000    -1.504507223573    15.994914619570

  Charge       = 0
  Multiplicity = 3
  Basis Set: AUG-CC-PVTZ
    Blend: AUG-CC-PVTZ

    Orbital Energies [Eh]
    ---------------------

    Alpha Occupied:

       1A1   -20.684529     2A1   -20.571198     3A1    -1.393949
       4A1    -1.355275     1B2    -0.718715     5A1    -0.688198
       1B1    -0.685251     6A1    -0.586446     2B2    -0.586261
       2B1    -0.513968

    Alpha Virtual:

       7A1     0.029553     3B2     0.047672     8A1     0.118599
       3B1     0.154050     9A1     0.159470     4B2     0.180289
       5B2     0.186920     4B1     0.192748    10A1     0.198009
       1A2     0.263712     6B2     0.264044    11A1     0.264766
      12A1     0.314357     5B1     0.326715    13A1     0.376040
       7B2     0.380350    14A1     0.449980     8B2     0.464333
       9B2     0.599991     6B1     0.643617    15A1     0.647420
       2A2     0.658158    16A1     0.666513    17A1     0.696152
       3A2     0.721700    10B2     0.722500     7B1     0.767507
      18A1     0.792753    19A1     0.818540     8B1     0.837801
      20A1     0.861027     9B1     0.901226    11B2     0.918620
       4A2     0.924714    12B2     0.946260    13B2     0.979677
      21A1     0.989724    10B1     1.012606    22A1     1.046345
      14B2     1.051367    11B1     1.121927     5A2     1.176716
      23A1     1.191615    15B2     1.198747    16B2     1.326823
      24A1     1.336496    25A1     1.443289     6A2     1.507249
      12B1     1.594013    26A1     1.666487    27A1     1.812432
      17B2     1.822052    18B2     1.976763    28A1     2.040756
      13B1     2.047759    19B2     2.054050     7A2     2.056759
      14B1     2.058909    29A1     2.079168    30A1     2.114900
       8A2     2.118691    20B2     2.135180    31A1     2.140243
      15B1     2.145199    32A1     2.252109    21B2     2.267147
      16B1     2.303360     9A2     2.311825    17B1     2.434024
      33A1     2.470079    22B2     2.482252    34A1     2.486237
      35A1     2.695608    18B1     2.715927    23B2     2.720832
      36A1     2.839924    24B2     2.862088    10A2     2.880094
      25B2     3.690621    37A1     3.753163    11A2     4.013187
      19B1     4.079385    20B1     4.099244    38A1     4.139923
      26B2     4.183227    27B2     4.281030    21B1     4.289276
      39A1     4.350920    12A2     4.381628    40A1     4.427334
      22B1     4.450999    28B2     4.515217    41A1     4.788494
      29B2     4.839445    30B2     5.141317    13A2     5.144042
      31B2     5.247823    42A1     5.339506    23B1     5.515830
      43A1     5.683785    44A1     6.198390    24B1     6.388925
      45A1     6.408847    14A2     6.410138    32B2     6.423576
      25B1     6.435491    33B2     6.485540    46A1     6.535697
      34B2     6.581823    26B1     6.716101    27B1     6.902276
      47A1     6.905558    15A2     6.924506    48A1     6.939619
      35B2     6.985625    49A1     7.046579    28B1     7.134794
      29B1     7.277992    16A2     7.305842    36B2     7.308494
      17A2     7.352279    50A1     7.437878    51A1     7.542051
      52A1     7.908615    37B2     7.915298    38B2     8.804315
      53A1     8.860236    54A1    15.769565

    Beta Occupied:

       1A1   -20.605663     2A1   -20.570737     3A1    -1.354589
       4A1    -1.051143     1B2    -0.718386     5A1    -0.588174
       1B1    -0.513308     2B2    -0.495680

    Beta Virtual:

       6A1     0.029392     3B2     0.047752     2B1     0.086504
       7A1     0.091923     8A1     0.140939     9A1     0.167039
       3B1     0.170625     4B2     0.180919     5B2     0.190508
      10A1     0.225534     4B1     0.253278     1A2     0.263714
       6B2     0.264491    11A1     0.288395    12A1     0.316748
       5B1     0.328018     7B2     0.380522    13A1     0.386386
      14A1     0.451065     8B2     0.464528     9B2     0.601608
      15A1     0.660468     6B1     0.667436     2A2     0.672579
      16A1     0.673622    17A1     0.713390     3A2     0.722165
      10B2     0.734711     7B1     0.778774    18A1     0.806054
       8B1     0.846936    19A1     0.850668     4A2     0.925101
      20A1     0.928060    11B2     0.936369    12B2     0.953320
      13B2     0.983418     9B1     0.986618    21A1     0.996887
      14B2     1.052477    22A1     1.052499    10B1     1.060418
      11B1     1.137955     5A2     1.176912    23A1     1.193106
      15B2     1.201473    16B2     1.329218    24A1     1.393130
      25A1     1.482667     6A2     1.507667    12B1     1.595983
      26A1     1.696643    27A1     1.817453    17B2     1.822386
      18B2     1.978153    28A1     2.070277    13B1     2.070814
      19B2     2.071475     7A2     2.081398    29A1     2.099458
      14B1     2.100298    30A1     2.155517    20B2     2.180879
       8A2     2.201912    31A1     2.207662    15B1     2.258254
      32A1     2.308894     9A2     2.311958    21B2     2.318949
      16B1     2.319202    17B1     2.441856    33A1     2.483152
      22B2     2.485131    34A1     2.514766    35A1     2.702988
      18B1     2.717628    23B2     2.721733    36A1     2.852045
      24B2     2.862270    10A2     2.880127    25B2     3.691489
      37A1     3.753297    11A2     4.013215    19B1     4.081708
      38A1     4.172079    26B2     4.218711    20B1     4.259603
      27B2     4.292027    21B1     4.294012    12A2     4.381733
      39A1     4.426201    22B1     4.456134    40A1     4.467715
      28B2     4.515294    41A1     4.799273    29B2     4.839600
      30B2     5.141496    13A2     5.144116    31B2     5.248229
      42A1     5.340152    23B1     5.515940    43A1     5.688287
      44A1     6.200041    24B1     6.485596    14A2     6.486968
      32B2     6.487752    45A1     6.493071    25B1     6.499205
      33B2     6.521136    46A1     6.607354    34B2     6.609760
      26B1     6.722958    47A1     6.955031    15A2     7.038058
      48A1     7.041919    27B1     7.084835    35B2     7.097486
      28B1     7.135196    49A1     7.173945    29B1     7.282128
      16A2     7.306108    36B2     7.308678    17A2     7.352690
      50A1     7.440636    51A1     7.543124    52A1     7.909176
      37B2     7.915646    38B2     8.804684    53A1     8.939660
      54A1    15.769882

    Final Occupation by Irrep:
             A1    A2    B1    B2
    DOCC [     5,    0,    1,    2 ]
    SOCC [     1,    0,    1,    0 ]

  @UHF Final Energy:  -150.87352453213714

   => Energetics <=

    Nuclear Repulsion Energy =             23.8138925131656904
    One-Electron Energy =                -255.6933656749985175
    Two-Electron Energy =                  81.0059486296956948
    Total Energy =                       -150.8735245321371394

  UHF NO Occupations:
  HONO-2 :    5 A1 1.9970493
  HONO-1 :    2 B1 1.0000000
  HONO-0 :    6 A1 1.0000000
  LUNO+0 :    7 A1 0.0029507
  LUNO+1 :    3 B2 0.0017949
  LUNO+2 :    8 A1 0.0000216
  LUNO+3 :    9 A1 0.0000024

Computation Completed

Properties will be evaluated at   0.000000,   0.000000,   0.000000 [a0]

Properties computed using the SCF density matrix

  Nuclear Dipole Moment: [e a0]
     X:     0.0000      Y:     0.0000      Z:     3.4854

  Electronic Dipole Moment: [e a0]
     X:     0.0000      Y:     0.0000      Z:    -2.6490

  Dipole Moment: [e a0]
     X:     0.0000      Y:     0.0000      Z:     0.8364     Total:     0.8364

  Dipole Moment: [D]
     X:     0.0000      Y:     0.0000      Z:     2.1259     Total:     2.1259

*** tstop() called on c2-13.compute.lan at Mon Mar  8 17:44:23 2021
Module time:
	user time   =      42.28 seconds =       0.70 minutes
	system time =       3.43 seconds =       0.06 minutes
	total time  =          6 seconds =       0.10 minutes
Total time:
	user time   =      42.28 seconds =       0.70 minutes
	system time =       3.43 seconds =       0.06 minutes
	total time  =          6 seconds =       0.10 minutes
 MINTS: Wrapper to libmints.
   by Justin Turney

   Calculation information:
      Number of threads:                12
      Number of atoms:                   4
      Number of AO shells:              46
      Number of SO shells:              37
      Number of primitives:             82
      Number of atomic orbitals:       160
      Number of basis functions:       138

      Number of irreps:                  4
      Integral cutoff                 0.00e+00
      Number of functions per irrep: [  54   17   29   38 ]

 OEINTS: Overlap, kinetic, potential, dipole, and quadrupole integrals
         stored in file 35.

      Computing two-electron integrals...done
      Computed 11336311 non-zero two-electron integrals.
        Stored in file 33.

*** tstart() called on c2-13.compute.lan
*** at Mon Mar  8 17:44:26 2021

	Wfn Parameters:
	--------------------
	Wavefunction         = CCSD_T
	Number of irreps     = 4
	Number of MOs        = 138
	Number of active MOs = 136
	AO-Basis             = NONE
	Semicanonical        = false
	Reference            = UHF
	Print Level          = 1

	IRREP	# MOs	# FZDC	# DOCC	# SOCC	# VIRT	# FZVR
	-----	-----	------	------	------	------	------
	 A1	   54	    2	    3	    1	    48	    0
	 A2	   17	    0	    0	    0	    17	    0
	 B1	   29	    0	    1	    1	    27	    0
	 B2	   38	    0	    2	    0	    36	    0
	Transforming integrals...
	IWL integrals will be deleted.
	(OO|OO)...
	Presorting SO-basis two-electron integrals.
	Sorting File: SO Ints (nn|nn) nbuckets = 1
	Transforming the one-electron integrals and constructing Fock matrices
	Starting AA/AB first half-transformation.
	Sorting AA/AB half-transformed integrals.
	Starting BB first half-transformation.
	Sorting BB half-transformed integrals.
	First half integral transformation complete.
	Starting AA second half-transformation.
	Starting AB second half-transformation.
	Starting BB second half-transformation.
	Two-electron integral transformation complete.
	(OO|OV)...
	Starting AA second half-transformation.
	Starting AB second half-transformation.
	Starting BB second half-transformation.
	Two-electron integral transformation complete.
	(OO|VV)...
	Starting AA second half-transformation.
	Starting AB second half-transformation.
	Starting BB second half-transformation.
	Two-electron integral transformation complete.
	(OV|OO)...
	Starting AA/AB first half-transformation.
	Sorting AA/AB half-transformed integrals.
	Starting BB first half-transformation.
	Sorting BB half-transformed integrals.
	First half integral transformation complete.
	Starting AA second half-transformation.
	Starting AB second half-transformation.
	Starting BB second half-transformation.
	Two-electron integral transformation complete.
	(OV|OV)...
	Starting AA second half-transformation.
	Starting AB second half-transformation.
	Starting BB second half-transformation.
	Two-electron integral transformation complete.
	(OV|VV)...
	Starting AA second half-transformation.
	Starting AB second half-transformation.
	Starting BB second half-transformation.
	Two-electron integral transformation complete.
	(VV|OO)...
	Starting AA/AB first half-transformation.
	Sorting AA/AB half-transformed integrals.
	Starting BB first half-transformation.
	Sorting BB half-transformed integrals.
	First half integral transformation complete.
	Starting AA second half-transformation.
	Starting AB second half-transformation.
	Starting BB second half-transformation.
	Two-electron integral transformation complete.
	(VV|OV)...
	Starting AA second half-transformation.
	Starting AB second half-transformation.
	Starting BB second half-transformation.
	Two-electron integral transformation complete.
	(VV|VV)...
	Starting AA second half-transformation.
	Starting AB second half-transformation.
	Starting BB second half-transformation.
	Two-electron integral transformation complete.
	Frozen core energy     =   -126.36578349712458

	Size of irrep 0 of <AB|CD> integrals:      5.040 (MW) /     40.320 (MB)
	Size of irrep 1 of <AB|CD> integrals:      3.197 (MW) /     25.576 (MB)
	Size of irrep 2 of <AB|CD> integrals:      3.640 (MW) /     29.124 (MB)
	Size of irrep 3 of <AB|CD> integrals:      4.783 (MW) /     38.264 (MB)
	Total:                                    16.660 (MW) /    133.283 (MB)

	Size of irrep 0 of <ab|cd> integrals:      5.382 (MW) /     43.059 (MB)
	Size of irrep 1 of <ab|cd> integrals:      3.389 (MW) /     27.114 (MB)
	Size of irrep 2 of <ab|cd> integrals:      3.936 (MW) /     31.490 (MB)
	Size of irrep 3 of <ab|cd> integrals:      5.018 (MW) /     40.141 (MB)
	Total:                                    17.726 (MW) /    141.804 (MB)

	Size of irrep 0 of <Ab|Cd> integrals:     22.024 (MW) /    176.194 (MB)
	Size of irrep 1 of <Ab|Cd> integrals:     13.170 (MW) /    105.357 (MB)
	Size of irrep 2 of <Ab|Cd> integrals:     15.140 (MW) /    121.119 (MB)
	Size of irrep 3 of <Ab|Cd> integrals:     19.598 (MW) /    156.787 (MB)
	Total:                                    69.932 (MW) /    559.457 (MB)

	Size of irrep 0 of <IA|BC> integrals:      1.469 (MW) /     11.748 (MB)
	Size of irrep 1 of <IA|BC> integrals:      0.694 (MW) /      5.550 (MB)
	Size of irrep 2 of <IA|BC> integrals:      0.908 (MW) /      7.266 (MB)
	Size of irrep 3 of <IA|BC> integrals:      1.198 (MW) /      9.588 (MB)
	Total:                                     4.269 (MW) /     34.152 (MB)

	Size of irrep 0 of <ia|bc> integrals:      1.178 (MW) /      9.426 (MB)
	Size of irrep 1 of <ia|bc> integrals:      0.527 (MW) /      4.212 (MB)
	Size of irrep 2 of <ia|bc> integrals:      0.663 (MW) /      5.301 (MB)
	Size of irrep 3 of <ia|bc> integrals:      0.999 (MW) /      7.992 (MB)
	Total:                                     3.366 (MW) /     26.931 (MB)

	Size of irrep 0 of <Ia|Bc> integrals:      1.521 (MW) /     12.164 (MB)
	Size of irrep 1 of <Ia|Bc> integrals:      0.711 (MW) /      5.690 (MB)
	Size of irrep 2 of <Ia|Bc> integrals:      0.949 (MW) /      7.595 (MB)
	Size of irrep 3 of <Ia|Bc> integrals:      1.222 (MW) /      9.775 (MB)
	Total:                                     4.403 (MW) /     35.225 (MB)

	Size of irrep 0 of <iA|bC> integrals:      1.140 (MW) /      9.123 (MB)
	Size of irrep 1 of <iA|bC> integrals:      0.512 (MW) /      4.094 (MB)
	Size of irrep 2 of <iA|bC> integrals:      0.634 (MW) /      5.074 (MB)
	Size of irrep 3 of <iA|bC> integrals:      0.978 (MW) /      7.827 (MB)
	Total:                                     3.265 (MW) /     26.118 (MB)

	Size of irrep 0 of tIjAb amplitudes:       0.084 (MW) /      0.676 (MB)
	Size of irrep 1 of tIjAb amplitudes:       0.022 (MW) /      0.174 (MB)
	Size of irrep 2 of tIjAb amplitudes:       0.039 (MW) /      0.311 (MB)
	Size of irrep 3 of tIjAb amplitudes:       0.062 (MW) /      0.496 (MB)
	Total:                                     0.207 (MW) /      1.657 (MB)

	Nuclear Rep. energy          =     23.81389251316569
	SCF energy                   =   -150.87352453213714
	One-electron energy          =    -85.39392531301543
	Two-electron (AA) energy     =     10.36147018376529
	Two-electron (BB) energy     =      5.46567815954637
	Two-electron (AB) energy     =     21.24514342152456
	Two-electron energy          =     37.07229176483622
	Reference energy             =   -150.87352453213811

*** tstop() called on c2-13.compute.lan at Mon Mar  8 17:45:27 2021
Module time:
	user time   =     463.48 seconds =       7.72 minutes
	system time =      31.68 seconds =       0.53 minutes
	total time  =         61 seconds =       1.02 minutes
Total time:
	user time   =     510.92 seconds =       8.52 minutes
	system time =      35.71 seconds =       0.60 minutes
	total time  =         70 seconds =       1.17 minutes
            **************************
            *                        *
            *        CCENERGY        *
            *                        *
            **************************

    Nuclear Rep. energy (wfn)     =   23.813892513165690
    SCF energy          (wfn)     = -150.873524532137139
    Reference energy    (file100) = -150.873524532138106

    Input parameters:
    -----------------
    Wave function   =     CCSD_T
    Reference wfn   =     UHF
    Brueckner       =     No
    Memory (Mbytes) =     4000.0
    Maxiter         =     50
    R_Convergence   =     1.0e-10
    E_Convergence   =     1.0e-10
    Restart         =     Yes
    DIIS            =     Yes
    AO Basis        =     NONE
    ABCD            =     NEW
    Cache Level     =     2
    Cache Type      =     LRU
    Print Level     =     1
    Num. of threads =     12
    # Amps to Print =     10
    Print MP2 Amps? =     No
    Analyze T2 Amps =     No
    Print Pair Ener =     No
    Local CC        =     No
    SCS-MP2         =     False
    SCSN-MP2        =     False
    SCS-CCSD        =     False

MP2 correlation energy -0.4162741450084879
                Solving CC Amplitude Equations
                ------------------------------
  Iter             Energy              RMS        T1Diag      D1Diag    New D1Diag    D2Diag
  ----     ---------------------    ---------   ----------  ----------  ----------   --------
     0        -0.416274145008488    0.000e+00    0.000000    0.000000    0.000000    0.000000
     1        -0.427054224434258    5.698e-02    0.010579    0.000000    0.000000    0.000000
     2        -0.435151339102015    1.703e-02    0.011073    0.000000    0.000000    0.000000
     3        -0.437302833916401    8.772e-03    0.012994    0.000000    0.000000    0.000000
     4        -0.437176418581784    2.680e-03    0.013403    0.000000    0.000000    0.000000
     5        -0.437166928709920    1.394e-03    0.013595    0.000000    0.000000    0.000000
     6        -0.437195992440412    5.294e-04    0.013621    0.000000    0.000000    0.000000
     7        -0.437198966250630    2.145e-04    0.013615    0.000000    0.000000    0.000000
     8        -0.437199906268809    6.677e-05    0.013610    0.000000    0.000000    0.000000
     9        -0.437200591577297    2.385e-05    0.013610    0.000000    0.000000    0.000000
    10        -0.437199692455215    9.218e-06    0.013610    0.000000    0.000000    0.000000
    11        -0.437199858010616    3.998e-06    0.013609    0.000000    0.000000    0.000000
    12        -0.437199818321137    1.444e-06    0.013610    0.000000    0.000000    0.000000
    13        -0.437199826239826    7.300e-07    0.013610    0.000000    0.000000    0.000000
    14        -0.437199848792487    3.045e-07    0.013610    0.000000    0.000000    0.000000
    15        -0.437199850490727    1.109e-07    0.013610    0.000000    0.000000    0.000000
    16        -0.437199851062109    4.968e-08    0.013610    0.000000    0.000000    0.000000
    17        -0.437199851639884    1.915e-08    0.013610    0.000000    0.000000    0.000000
    18        -0.437199851497485    9.943e-09    0.013610    0.000000    0.000000    0.000000

      * MP2 total energy                      = -151.289798677146592
      * CCSD total energy                     = -151.310724383391317
      * CCSD(T) total energy                     = -151.323017327705884
*** Psi4 exiting successfully. Buy a developer a beer!
