                               Psi4 1.3.2 release

  ==> Input File <==

--------------------------------------------------------------------------
memory 4 GB

molecule  {
0 3
O    0.000000000000    0.000000000000   -1.632908056800
H    0.000000000000   -0.754273173400   -1.037073650800
H   -0.000000000000    0.754273173400   -1.037073650800
O    0.000000000000   -0.000000000000    1.763598193100
}
set {
basis aug-cc-pvtz
reference uhf
e_convergence 10
scf_type pk
freeze_core true
}

set ccenergy {
e_convergence 10
r_convergence 10
}

e = energy('ccsd(t)')

print_out('Stephenergy {}'.format(e))

--------------------------------------------------------------------------

    Molecular point group: c2v

    Geometry (in Angstrom), charge = 0, multiplicity = 3:

       Center              X                  Y                   Z               Mass
    ------------   -----------------  -----------------  -----------------  -----------------
         O            0.000000000000     0.000000000000    -1.632908056819    15.994914619570
         H            0.000000000000    -0.754273173400    -1.037073650819     1.007825032230
         H           -0.000000000000     0.754273173400    -1.037073650819     1.007825032230
         O            0.000000000000     0.000000000000     1.763598193081    15.994914619570

  Charge       = 0
  Multiplicity = 3
  Basis Set: AUG-CC-PVTZ
    Blend: AUG-CC-PVTZ

    Orbital Energies [Eh]
    ---------------------

    Alpha Occupied:

       1A1   -20.729167     2A1   -20.562754     3A1    -1.438191
       4A1    -1.347008     1B2    -0.729609     1B1    -0.729197
       2B2    -0.708247     5A1    -0.632687     6A1    -0.579894
       2B1    -0.505225

    Alpha Virtual:

       7A1     0.035542     3B2     0.048544     3B1     0.132014
       8A1     0.134536     9A1     0.148413     4B2     0.158160
       4B1     0.181459     5B2     0.184979    10A1     0.189410
      11A1     0.251388     6B2     0.258130     1A2     0.266014
      12A1     0.273564     5B1     0.320313    13A1     0.368850
       7B2     0.382674    14A1     0.454197     8B2     0.472088
       2A2     0.609204     9B2     0.617206    15A1     0.619157
      16A1     0.620413     6B1     0.641152    17A1     0.717696
       3A2     0.731049    10B2     0.736717     7B1     0.743265
      18A1     0.800943    19A1     0.839201     8B1     0.839819
      11B2     0.853457     9B1     0.915675    20A1     0.930017
       4A2     0.934882    12B2     0.941982    21A1     0.958893
      10B1     0.963601    13B2     0.965868    22A1     1.049421
      14B2     1.054725    11B1     1.125627     5A2     1.186279
      23A1     1.187379    15B2     1.260679    24A1     1.264082
      16B2     1.275093    25A1     1.350522     6A2     1.511547
      12B1     1.591993    26A1     1.640121    27A1     1.828664
      17B2     1.830730    18B2     1.972154    13B1     1.978419
      19B2     1.991351    28A1     2.005310     7A2     2.011709
      14B1     2.026818    29A1     2.036909     8A2     2.041242
      20B2     2.083894    30A1     2.087523    15B1     2.122040
      31A1     2.149865    21B2     2.266901    16B1     2.280453
       9A2     2.330420    32A1     2.344376    33A1     2.403607
      34A1     2.488500    22B2     2.494134    17B1     2.509394
      35A1     2.575973    23B2     2.689677    18B1     2.719199
      36A1     2.820923    10A2     2.889237    24B2     2.904983
      25B2     3.667849    37A1     3.753996    11A2     4.031972
      19B1     4.050935    26B2     4.086758    20B1     4.102958
      38A1     4.153702    27B2     4.278362    21B1     4.283993
      39A1     4.369797    12A2     4.383684    40A1     4.410966
      22B1     4.417168    28B2     4.530556    41A1     4.750399
      29B2     4.853896    13A2     5.151114    30B2     5.164971
      31B2     5.252631    42A1     5.372223    23B1     5.529172
      43A1     5.676930    44A1     6.200359    24B1     6.314964
      32B2     6.315894    14A2     6.370861    45A1     6.376572
      25B1     6.402999    33B2     6.453858    46A1     6.483425
      34B2     6.528829    26B1     6.739825    15A2     6.819347
      47A1     6.820829    27B1     6.928837    48A1     6.930502
      35B2     6.959084    49A1     7.034215    28B1     7.136627
      29B1     7.261289    16A2     7.319155    36B2     7.347602
      17A2     7.358667    50A1     7.358773    51A1     7.550118
      52A1     7.900686    37B2     7.938527    53A1     8.543394
      38B2     8.815119    54A1    15.744193

    Beta Occupied:

       1A1   -20.650607     2A1   -20.562795     3A1    -1.347195
       4A1    -1.095907     1B2    -0.708402     5A1    -0.584413
       6A1    -0.538589     1B1    -0.505213

    Beta Virtual:

       2B2     0.035226     7A1     0.036672     2B1     0.049745
       3B2     0.069599     8A1     0.140681     9A1     0.150953
       3B1     0.160462     4B2     0.180743    10A1     0.189732
       5B2     0.222338     4B1     0.225421    11A1     0.260420
       6B2     0.263380     1A2     0.266346    12A1     0.275111
       5B1     0.321005    13A1     0.372244     7B2     0.387962
      14A1     0.455368     8B2     0.472601     9B2     0.619580
      15A1     0.621870     2A2     0.641390    16A1     0.651887
       6B1     0.653094    17A1     0.719008     3A2     0.732456
       7B1     0.745432    10B2     0.748216    18A1     0.810492
      19A1     0.850976     8B1     0.912045     9B1     0.931339
      20A1     0.935524     4A2     0.936381    11B2     0.940591
      12B2     0.945208    21A1     0.959862    13B2     1.011433
      10B1     1.026079    22A1     1.050041    14B2     1.057672
      11B1     1.131222     5A2     1.187013    23A1     1.191453
      15B2     1.271013    16B2     1.281732    24A1     1.285559
      25A1     1.404785     6A2     1.511669    12B1     1.592111
      26A1     1.653337    27A1     1.829881    17B2     1.831982
      18B2     1.980405    13B1     2.016483    19B2     2.021967
      28A1     2.030523     7A2     2.043174    14B1     2.047458
      29A1     2.100463    20B2     2.128912    30A1     2.159715
       8A2     2.182625    15B1     2.190400    31A1     2.197381
      16B1     2.285116    21B2     2.311469     9A2     2.333537
      32A1     2.363742    33A1     2.415267    34A1     2.492726
      22B2     2.499060    17B1     2.514115    35A1     2.578701
      23B2     2.689855    18B1     2.719294    36A1     2.821276
      10A2     2.889263    24B2     2.907011    25B2     3.667896
      37A1     3.754117    11A2     4.032064    19B1     4.102074
      38A1     4.168134    20B1     4.223919    26B2     4.242705
      21B1     4.284026    27B2     4.292434    12A2     4.383734
      39A1     4.389093    22B1     4.417384    40A1     4.424763
      28B2     4.530809    41A1     4.750584    29B2     4.854011
      13A2     5.151134    30B2     5.164976    31B2     5.252658
      42A1     5.372681    23B1     5.529176    43A1     5.677270
      44A1     6.202287    24B1     6.423803    32B2     6.424578
      14A2     6.447508    45A1     6.451427    25B1     6.458175
      33B2     6.497076    46A1     6.532073    34B2     6.542251
      26B1     6.746421    47A1     6.930780    15A2     7.008337
      48A1     7.010307    27B1     7.036021    35B2     7.068136
      49A1     7.114774    28B1     7.136991    29B1     7.261246
      16A2     7.319198    36B2     7.349559    17A2     7.358730
      50A1     7.359553    51A1     7.550914    52A1     7.900919
      37B2     7.938509    53A1     8.628219    38B2     8.815054
      54A1    15.744188

    Final Occupation by Irrep:
             A1    A2    B1    B2
    DOCC [     6,    0,    1,    1 ]
    SOCC [     0,    0,    1,    1 ]

  @UHF Final Energy:  -150.87357941477916

   => Energetics <=

    Nuclear Repulsion Energy =             22.0495595176603629
    One-Electron Energy =                -251.8911774511125259
    Two-Electron Energy =                  78.9680385186729978
    Total Energy =                       -150.8735794147791580

  UHF NO Occupations:
  HONO-2 :    6 A1 1.9970748
  HONO-1 :    2 B1 1.0000000
  HONO-0 :    2 B2 1.0000000
  LUNO+0 :    7 A1 0.0029252
  LUNO+1 :    8 A1 0.0016830
  LUNO+2 :    9 A1 0.0000024
  LUNO+3 :   10 A1 0.0000005

Computation Completed

Properties will be evaluated at   0.000000,   0.000000,   0.000000 [a0]

Properties computed using the SCF density matrix

  Nuclear Dipole Moment: [e a0]
     X:     0.0000      Y:     0.0000      Z:    -1.9438

  Electronic Dipole Moment: [e a0]
     X:     0.0000      Y:     0.0000      Z:     2.7776

  Dipole Moment: [e a0]
     X:     0.0000      Y:     0.0000      Z:     0.8338     Total:     0.8338

  Dipole Moment: [D]
     X:     0.0000      Y:     0.0000      Z:     2.1193     Total:     2.1193

*** tstop() called on b1-8.compute.lan at Wed Mar 10 09:41:56 2021
Module time:
	user time   =      34.34 seconds =       0.57 minutes
	system time =       0.97 seconds =       0.02 minutes
	total time  =          4 seconds =       0.07 minutes
Total time:
	user time   =      34.34 seconds =       0.57 minutes
	system time =       0.97 seconds =       0.02 minutes
	total time  =          4 seconds =       0.07 minutes
 MINTS: Wrapper to libmints.
   by Justin Turney

   Calculation information:
      Number of threads:                12
      Number of atoms:                   4
      Number of AO shells:              46
      Number of SO shells:              37
      Number of primitives:             82
      Number of atomic orbitals:       160
      Number of basis functions:       138

      Number of irreps:                  4
      Integral cutoff                 0.00e+00
      Number of functions per irrep: [  54   17   29   38 ]

 OEINTS: Overlap, kinetic, potential, dipole, and quadrupole integrals
         stored in file 35.

      Computing two-electron integrals...done
      Computed 11337125 non-zero two-electron integrals.
        Stored in file 33.

*** tstart() called on b1-8.compute.lan
*** at Wed Mar 10 09:41:58 2021

	Wfn Parameters:
	--------------------
	Wavefunction         = CCSD_T
	Number of irreps     = 4
	Number of MOs        = 138
	Number of active MOs = 136
	AO-Basis             = NONE
	Semicanonical        = false
	Reference            = UHF
	Print Level          = 1

	IRREP	# MOs	# FZDC	# DOCC	# SOCC	# VIRT	# FZVR
	-----	-----	------	------	------	------	------
	 A1	   54	    2	    4	    0	    48	    0
	 A2	   17	    0	    0	    0	    17	    0
	 B1	   29	    0	    1	    1	    27	    0
	 B2	   38	    0	    1	    1	    36	    0
	Transforming integrals...
	IWL integrals will be deleted.
	(OO|OO)...
	Presorting SO-basis two-electron integrals.
	Sorting File: SO Ints (nn|nn) nbuckets = 1
	Transforming the one-electron integrals and constructing Fock matrices
	Starting AA/AB first half-transformation.
	Sorting AA/AB half-transformed integrals.
	Starting BB first half-transformation.
	Sorting BB half-transformed integrals.
	First half integral transformation complete.
	Starting AA second half-transformation.
	Starting AB second half-transformation.
	Starting BB second half-transformation.
	Two-electron integral transformation complete.
	(OO|OV)...
	Starting AA second half-transformation.
	Starting AB second half-transformation.
	Starting BB second half-transformation.
	Two-electron integral transformation complete.
	(OO|VV)...
	Starting AA second half-transformation.
	Starting AB second half-transformation.
	Starting BB second half-transformation.
	Two-electron integral transformation complete.
	(OV|OO)...
	Starting AA/AB first half-transformation.
	Sorting AA/AB half-transformed integrals.
	Starting BB first half-transformation.
	Sorting BB half-transformed integrals.
	First half integral transformation complete.
	Starting AA second half-transformation.
	Starting AB second half-transformation.
	Starting BB second half-transformation.
	Two-electron integral transformation complete.
	(OV|OV)...
	Starting AA second half-transformation.
	Starting AB second half-transformation.
	Starting BB second half-transformation.
	Two-electron integral transformation complete.
	(OV|VV)...
	Starting AA second half-transformation.
	Starting AB second half-transformation.
	Starting BB second half-transformation.
	Two-electron integral transformation complete.
	(VV|OO)...
	Starting AA/AB first half-transformation.
	Sorting AA/AB half-transformed integrals.
	Starting BB first half-transformation.
	Sorting BB half-transformed integrals.
	First half integral transformation complete.
	Starting AA second half-transformation.
	Starting AB second half-transformation.
	Starting BB second half-transformation.
	Two-electron integral transformation complete.
	(VV|OV)...
	Starting AA second half-transformation.
	Starting AB second half-transformation.
	Starting BB second half-transformation.
	Two-electron integral transformation complete.
	(VV|VV)...
	Starting AA second half-transformation.
	Starting AB second half-transformation.
	Starting BB second half-transformation.
	Two-electron integral transformation complete.
	Frozen core energy     =   -125.50530713230282

	Size of irrep 0 of <AB|CD> integrals:      5.040 (MW) /     40.320 (MB)
	Size of irrep 1 of <AB|CD> integrals:      3.197 (MW) /     25.576 (MB)
	Size of irrep 2 of <AB|CD> integrals:      3.640 (MW) /     29.124 (MB)
	Size of irrep 3 of <AB|CD> integrals:      4.783 (MW) /     38.264 (MB)
	Total:                                    16.660 (MW) /    133.283 (MB)

	Size of irrep 0 of <ab|cd> integrals:      5.327 (MW) /     42.615 (MB)
	Size of irrep 1 of <ab|cd> integrals:      3.430 (MW) /     27.439 (MB)
	Size of irrep 2 of <ab|cd> integrals:      3.893 (MW) /     31.142 (MB)
	Size of irrep 3 of <ab|cd> integrals:      5.072 (MW) /     40.572 (MB)
	Total:                                    17.721 (MW) /    141.768 (MB)

	Size of irrep 0 of <Ab|Cd> integrals:     21.912 (MW) /    175.294 (MB)
	Size of irrep 1 of <Ab|Cd> integrals:     13.242 (MW) /    105.939 (MB)
	Size of irrep 2 of <Ab|Cd> integrals:     15.062 (MW) /    120.497 (MB)
	Size of irrep 3 of <Ab|Cd> integrals:     19.705 (MW) /    157.638 (MB)
	Total:                                    69.921 (MW) /    559.368 (MB)

	Size of irrep 0 of <IA|BC> integrals:      1.469 (MW) /     11.748 (MB)
	Size of irrep 1 of <IA|BC> integrals:      0.694 (MW) /      5.550 (MB)
	Size of irrep 2 of <IA|BC> integrals:      0.908 (MW) /      7.266 (MB)
	Size of irrep 3 of <IA|BC> integrals:      1.198 (MW) /      9.588 (MB)
	Total:                                     4.269 (MW) /     34.152 (MB)

	Size of irrep 0 of <ia|bc> integrals:      1.220 (MW) /      9.758 (MB)
	Size of irrep 1 of <ia|bc> integrals:      0.493 (MW) /      3.941 (MB)
	Size of irrep 2 of <ia|bc> integrals:      0.698 (MW) /      5.588 (MB)
	Size of irrep 3 of <ia|bc> integrals:      0.959 (MW) /      7.675 (MB)
	Total:                                     3.370 (MW) /     26.961 (MB)

	Size of irrep 0 of <Ia|Bc> integrals:      1.507 (MW) /     12.058 (MB)
	Size of irrep 1 of <Ia|Bc> integrals:      0.721 (MW) /      5.764 (MB)
	Size of irrep 2 of <Ia|Bc> integrals:      0.939 (MW) /      7.514 (MB)
	Size of irrep 3 of <Ia|Bc> integrals:      1.234 (MW) /      9.872 (MB)
	Total:                                     4.401 (MW) /     35.208 (MB)

	Size of irrep 0 of <iA|bC> integrals:      1.194 (MW) /      9.549 (MB)
	Size of irrep 1 of <iA|bC> integrals:      0.477 (MW) /      3.814 (MB)
	Size of irrep 2 of <iA|bC> integrals:      0.671 (MW) /      5.371 (MB)
	Size of irrep 3 of <iA|bC> integrals:      0.928 (MW) /      7.422 (MB)
	Total:                                     3.270 (MW) /     26.156 (MB)

	Size of irrep 0 of tIjAb amplitudes:       0.094 (MW) /      0.749 (MB)
	Size of irrep 1 of tIjAb amplitudes:       0.015 (MW) /      0.116 (MB)
	Size of irrep 2 of tIjAb amplitudes:       0.047 (MW) /      0.373 (MB)
	Size of irrep 3 of tIjAb amplitudes:       0.053 (MW) /      0.426 (MB)
	Total:                                     0.208 (MW) /      1.664 (MB)

	Nuclear Rep. energy          =     22.04955951766036
	SCF energy                   =   -150.87357941477916
	One-electron energy          =    -83.38588568319906
	Two-electron (AA) energy     =      9.96896237390249
	Two-electron (BB) energy     =      5.30495877978665
	Two-electron (AB) energy     =     20.69413272937152
	Two-electron energy          =     35.96805388306066
	Reference energy             =   -150.87357941478086

*** tstop() called on b1-8.compute.lan at Wed Mar 10 09:42:30 2021
Module time:
	user time   =     269.66 seconds =       4.49 minutes
	system time =      10.00 seconds =       0.17 minutes
	total time  =         32 seconds =       0.53 minutes
Total time:
	user time   =     308.99 seconds =       5.15 minutes
	system time =      11.26 seconds =       0.19 minutes
	total time  =         38 seconds =       0.63 minutes
            **************************
            *                        *
            *        CCENERGY        *
            *                        *
            **************************

    Nuclear Rep. energy (wfn)     =   22.049559517660363
    SCF energy          (wfn)     = -150.873579414779158
    Reference energy    (file100) = -150.873579414780863

    Input parameters:
    -----------------
    Wave function   =     CCSD_T
    Reference wfn   =     UHF
    Brueckner       =     No
    Memory (Mbytes) =     4000.0
    Maxiter         =     50
    R_Convergence   =     1.0e-10
    E_Convergence   =     1.0e-10
    Restart         =     Yes
    DIIS            =     Yes
    AO Basis        =     NONE
    ABCD            =     NEW
    Cache Level     =     2
    Cache Type      =     LRU
    Print Level     =     1
    Num. of threads =     12
    # Amps to Print =     10
    Print MP2 Amps? =     No
    Analyze T2 Amps =     No
    Print Pair Ener =     No
    Local CC        =     No
    SCS-MP2         =     False
    SCSN-MP2        =     False
    SCS-CCSD        =     False

MP2 correlation energy -0.4157265868385346
                Solving CC Amplitude Equations
                ------------------------------
  Iter             Energy              RMS        T1Diag      D1Diag    New D1Diag    D2Diag
  ----     ---------------------    ---------   ----------  ----------  ----------   --------
     0        -0.415726586838535    0.000e+00    0.000000    0.000000    0.000000    0.000000
     1        -0.426593053870260    5.637e-02    0.010362    0.000000    0.000000    0.000000
     2        -0.434681329168355    1.678e-02    0.010866    0.000000    0.000000    0.000000
     3        -0.436777646288277    8.409e-03    0.012684    0.000000    0.000000    0.000000
     4        -0.436653673238214    2.491e-03    0.013028    0.000000    0.000000    0.000000
     5        -0.436641367639424    1.261e-03    0.013172    0.000000    0.000000    0.000000
     6        -0.436666869405846    4.985e-04    0.013186    0.000000    0.000000    0.000000
     7        -0.436671074511595    2.272e-04    0.013176    0.000000    0.000000    0.000000
     8        -0.436671803239306    6.841e-05    0.013170    0.000000    0.000000    0.000000
     9        -0.436673028348373    2.854e-05    0.013170    0.000000    0.000000    0.000000
    10        -0.436671840491124    1.099e-05    0.013169    0.000000    0.000000    0.000000
    11        -0.436671948499403    5.601e-06    0.013169    0.000000    0.000000    0.000000
    12        -0.436671908655364    2.769e-06    0.013170    0.000000    0.000000    0.000000
    13        -0.436671904323447    1.469e-06    0.013170    0.000000    0.000000    0.000000
    14        -0.436671933914624    6.698e-07    0.013170    0.000000    0.000000    0.000000
    15        -0.436671932735967    1.744e-07    0.013170    0.000000    0.000000    0.000000
    16        -0.436671932624740    1.067e-07    0.013170    0.000000    0.000000    0.000000
    17        -0.436671933451572    3.004e-08    0.013170    0.000000    0.000000    0.000000
    18        -0.436671933040872    1.353e-08    0.013170    0.000000    0.000000    0.000000

      * MP2 total energy                      = -151.289306001619394
      * CCSD total energy                     = -151.310251347571153
      * CCSD(T) total energy                     = -151.322471559995421
*** Psi4 exiting successfully. Buy a developer a beer!
