                               Psi4 1.3.2 release

  ==> Input File <==

--------------------------------------------------------------------------
memory 4 GB

molecule  {
0 3
O    0.000000000000    0.000000000000   -1.503956028999
H    0.000000000000   -0.748606484000   -0.891565779781
H   -0.000000000000    0.748606484000   -0.891565779781
O    0.000000000000    0.000000000000    1.616309527860
}
set {
basis aug-cc-pvtz
reference uhf
e_convergence 10
scf_type pk
freeze_core true
}

set ccenergy {
e_convergence 10
r_convergence 10
}

e = energy('ccsd(t)')

print_out('Stephenergy {}'.format(e))

--------------------------------------------------------------------------

    Molecular point group: c2v

    Geometry (in Angstrom), charge = 0, multiplicity = 3:

       Center              X                  Y                   Z               Mass
    ------------   -----------------  -----------------  -----------------  -----------------
         O           -0.000000000000     0.000000000000    -1.503956028999    15.994914619570
         H            0.000000000000    -0.748606484000    -0.891565779781     1.007825032230
         H           -0.000000000000     0.748606484000    -0.891565779781     1.007825032230
         O           -0.000000000000     0.000000000000     1.616309527860    15.994914619570

  Charge       = 0
  Multiplicity = 3
  Basis Set: AUG-CC-PVTZ
    Blend: AUG-CC-PVTZ

    Orbital Energies [Eh]
    ---------------------

    Alpha Occupied:

       1A1   -20.732405     2A1   -20.562347     3A1    -1.442108
       4A1    -1.343492     1B2    -0.733565     1B1    -0.732776
       2B2    -0.699255     5A1    -0.639266     6A1    -0.578571
       2B1    -0.503432

    Alpha Virtual:

       7A1     0.035916     3B2     0.048675     3B1     0.131157
       8A1     0.131779     9A1     0.151612     4B2     0.159028
       4B1     0.185007     5B2     0.186012    10A1     0.191034
      11A1     0.261328     6B2     0.262340     1A2     0.266087
      12A1     0.275417     5B1     0.324537    13A1     0.380869
       7B2     0.385611    14A1     0.454134     8B2     0.473781
       2A2     0.611568    15A1     0.627000     9B2     0.627082
      16A1     0.639517     6B1     0.649951    17A1     0.716620
       3A2     0.732561    10B2     0.747891     7B1     0.758982
      18A1     0.785921     8B1     0.829246    11B2     0.849823
      19A1     0.858149     9B1     0.920004    12B2     0.943131
       4A2     0.945552    20A1     0.960215    21A1     0.981390
      10B1     0.991541    13B2     1.003085    22A1     1.057799
      14B2     1.060374    11B1     1.156773     5A2     1.193671
      23A1     1.201118    24A1     1.239272    15B2     1.271887
      16B2     1.324994    25A1     1.420284     6A2     1.508476
      12B1     1.583225    26A1     1.729291    27A1     1.839873
      17B2     1.849921    18B2     1.960679    13B1     1.976188
      19B2     2.006419    28A1     2.006797     7A2     2.017589
      14B1     2.037121    29A1     2.042951     8A2     2.069032
      30A1     2.095257    20B2     2.109638    15B1     2.149579
      31A1     2.201216    16B1     2.305931    21B2     2.322437
       9A2     2.340944    32A1     2.377813    33A1     2.414137
      34A1     2.485617    22B2     2.524293    17B1     2.551029
      35A1     2.604546    23B2     2.699242    18B1     2.726834
      36A1     2.844908    10A2     2.889345    24B2     2.899729
      25B2     3.670138    37A1     3.731636    11A2     4.045298
      19B1     4.053606    20B1     4.108206    26B2     4.116159
      38A1     4.213109    21B1     4.257853    27B2     4.277507
      39A1     4.302486    12A2     4.384570    22B1     4.419225
      40A1     4.500378    28B2     4.543408    41A1     4.764544
      29B2     4.854866    13A2     5.132233    30B2     5.185517
      31B2     5.226524    42A1     5.354951    23B1     5.520558
      43A1     5.649577    44A1     6.212634    24B1     6.312473
      32B2     6.314927    14A2     6.384810    45A1     6.396797
      25B1     6.419081    33B2     6.490890    46A1     6.509471
      34B2     6.545735    26B1     6.767180    15A2     6.821142
      47A1     6.823378    27B1     6.940191    48A1     6.944933
      35B2     6.978570    49A1     7.039648    28B1     7.133384
      29B1     7.263225    16A2     7.311426    36B2     7.324811
      17A2     7.356432    50A1     7.389509    51A1     7.545532
      52A1     7.876208    37B2     7.939608    53A1     8.780283
      38B2     8.801174    54A1    15.598258

    Beta Occupied:

       1A1   -20.653911     2A1   -20.562419     3A1    -1.343909
       4A1    -1.100021     1B2    -0.699592     5A1    -0.589737
       6A1    -0.539095     1B1    -0.503367

    Beta Virtual:

       2B2     0.033082     7A1     0.037176     2B1     0.047389
       3B2     0.069370     8A1     0.137357     9A1     0.154166
       3B1     0.161363     4B2     0.179738    10A1     0.191473
       4B1     0.225742     5B2     0.226015     6B2     0.264853
       1A2     0.266660    11A1     0.269371    12A1     0.278997
       5B1     0.326284    13A1     0.384515     7B2     0.393676
      14A1     0.455818     8B2     0.474259     9B2     0.628564
      15A1     0.641421     2A2     0.643524    16A1     0.660097
       6B1     0.660506    17A1     0.717593     3A2     0.733749
      10B2     0.761308     7B1     0.763079    18A1     0.800614
      19A1     0.862592     8B1     0.910270     9B1     0.937930
      11B2     0.939544     4A2     0.948051    12B2     0.952802
      20A1     0.961985    21A1     0.987041    13B2     1.031008
      10B1     1.036915    22A1     1.059715    14B2     1.069883
      11B1     1.168813     5A2     1.194710    23A1     1.205527
      15B2     1.272017    24A1     1.282004    16B2     1.343283
      25A1     1.443713     6A2     1.508785    12B1     1.583588
      26A1     1.749412    27A1     1.843456    17B2     1.851120
      18B2     1.972026    13B1     2.013578    28A1     2.031905
      19B2     2.032787    14B1     2.063953     7A2     2.070546
      29A1     2.102213    20B2     2.165839     8A2     2.186342
      30A1     2.187571    15B1     2.207031    31A1     2.243565
      16B1     2.315404     9A2     2.346100    21B2     2.354928
      32A1     2.382084    33A1     2.433429    34A1     2.486643
      22B2     2.532235    17B1     2.555928    35A1     2.608533
      23B2     2.699844    18B1     2.727012    36A1     2.845744
      10A2     2.889414    24B2     2.901271    25B2     3.670629
      37A1     3.732066    11A2     4.045446    19B1     4.103146
      38A1     4.218043    20B1     4.227748    21B1     4.259988
      26B2     4.267881    27B2     4.292483    39A1     4.319568
      12A2     4.384643    22B1     4.420080    40A1     4.525579
      28B2     4.544978    41A1     4.765515    29B2     4.855490
      13A2     5.132286    30B2     5.185591    31B2     5.226657
      42A1     5.355393    23B1     5.520565    43A1     5.649871
      44A1     6.217861    24B1     6.421118    32B2     6.423238
      14A2     6.461279    45A1     6.469642    25B1     6.473167
      33B2     6.507134    46A1     6.555429    34B2     6.586298
      26B1     6.774718    47A1     6.947363    15A2     7.009669
      48A1     7.013942    27B1     7.045534    35B2     7.087226
      49A1     7.116836    28B1     7.134808    29B1     7.263302
      16A2     7.311464    36B2     7.325696    17A2     7.356609
      50A1     7.390783    51A1     7.547191    52A1     7.876387
      37B2     7.939615    38B2     8.801043    53A1     8.861574
      54A1    15.598266

    Final Occupation by Irrep:
             A1    A2    B1    B2
    DOCC [     6,    0,    1,    1 ]
    SOCC [     0,    0,    1,    1 ]

  @UHF Final Energy:  -150.87184097626087

   => Energetics <=

    Nuclear Repulsion Energy =             23.1966453098968586
    One-Electron Energy =                -254.1777050368852997
    Two-Electron Energy =                  80.1092187507275639
    Total Energy =                       -150.8718409762608701

  UHF NO Occupations:
  HONO-2 :    6 A1 1.9970819
  HONO-1 :    2 B1 1.0000000
  HONO-0 :    2 B2 1.0000000
  LUNO+0 :    7 A1 0.0029181
  LUNO+1 :    8 A1 0.0016288
  LUNO+2 :    9 A1 0.0000024
  LUNO+3 :   10 A1 0.0000015

Computation Completed

Properties will be evaluated at   0.000000,   0.000000,   0.000000 [a0]

Properties computed using the SCF density matrix

  Nuclear Dipole Moment: [e a0]
     X:    -0.0000      Y:     0.0000      Z:    -1.6711

  Electronic Dipole Moment: [e a0]
     X:     0.0000      Y:     0.0000      Z:     2.5342

  Dipole Moment: [e a0]
     X:    -0.0000      Y:     0.0000      Z:     0.8631     Total:     0.8631

  Dipole Moment: [D]
     X:    -0.0000      Y:     0.0000      Z:     2.1938     Total:     2.1938

*** tstop() called on c5-7.compute.lan at Wed Mar 10 09:32:12 2021
Module time:
	user time   =      45.09 seconds =       0.75 minutes
	system time =       0.82 seconds =       0.01 minutes
	total time  =          6 seconds =       0.10 minutes
Total time:
	user time   =      45.09 seconds =       0.75 minutes
	system time =       0.82 seconds =       0.01 minutes
	total time  =          6 seconds =       0.10 minutes
 MINTS: Wrapper to libmints.
   by Justin Turney

   Calculation information:
      Number of threads:                12
      Number of atoms:                   4
      Number of AO shells:              46
      Number of SO shells:              37
      Number of primitives:             82
      Number of atomic orbitals:       160
      Number of basis functions:       138

      Number of irreps:                  4
      Integral cutoff                 0.00e+00
      Number of functions per irrep: [  54   17   29   38 ]

 OEINTS: Overlap, kinetic, potential, dipole, and quadrupole integrals
         stored in file 35.

      Computing two-electron integrals...done
      Computed 11523212 non-zero two-electron integrals.
        Stored in file 33.

*** tstart() called on c5-7.compute.lan
*** at Wed Mar 10 09:32:14 2021

	Wfn Parameters:
	--------------------
	Wavefunction         = CCSD_T
	Number of irreps     = 4
	Number of MOs        = 138
	Number of active MOs = 136
	AO-Basis             = NONE
	Semicanonical        = false
	Reference            = UHF
	Print Level          = 1

	IRREP	# MOs	# FZDC	# DOCC	# SOCC	# VIRT	# FZVR
	-----	-----	------	------	------	------	------
	 A1	   54	    2	    4	    0	    48	    0
	 A2	   17	    0	    0	    0	    17	    0
	 B1	   29	    0	    1	    1	    27	    0
	 B2	   38	    0	    1	    1	    36	    0
	Transforming integrals...
	IWL integrals will be deleted.
	(OO|OO)...
	Presorting SO-basis two-electron integrals.
	Sorting File: SO Ints (nn|nn) nbuckets = 1
	Transforming the one-electron integrals and constructing Fock matrices
	Starting AA/AB first half-transformation.
	Sorting AA/AB half-transformed integrals.
	Starting BB first half-transformation.
	Sorting BB half-transformed integrals.
	First half integral transformation complete.
	Starting AA second half-transformation.
	Starting AB second half-transformation.
	Starting BB second half-transformation.
	Two-electron integral transformation complete.
	(OO|OV)...
	Starting AA second half-transformation.
	Starting AB second half-transformation.
	Starting BB second half-transformation.
	Two-electron integral transformation complete.
	(OO|VV)...
	Starting AA second half-transformation.
	Starting AB second half-transformation.
	Starting BB second half-transformation.
	Two-electron integral transformation complete.
	(OV|OO)...
	Starting AA/AB first half-transformation.
	Sorting AA/AB half-transformed integrals.
	Starting BB first half-transformation.
	Sorting BB half-transformed integrals.
	First half integral transformation complete.
	Starting AA second half-transformation.
	Starting AB second half-transformation.
	Starting BB second half-transformation.
	Two-electron integral transformation complete.
	(OV|OV)...
	Starting AA second half-transformation.
	Starting AB second half-transformation.
	Starting BB second half-transformation.
	Two-electron integral transformation complete.
	(OV|VV)...
	Starting AA second half-transformation.
	Starting AB second half-transformation.
	Starting BB second half-transformation.
	Two-electron integral transformation complete.
	(VV|OO)...
	Starting AA/AB first half-transformation.
	Sorting AA/AB half-transformed integrals.
	Starting BB first half-transformation.
	Sorting BB half-transformed integrals.
	First half integral transformation complete.
	Starting AA second half-transformation.
	Starting AB second half-transformation.
	Starting BB second half-transformation.
	Two-electron integral transformation complete.
	(VV|OV)...
	Starting AA second half-transformation.
	Starting AB second half-transformation.
	Starting BB second half-transformation.
	Two-electron integral transformation complete.
	(VV|VV)...
	Starting AA second half-transformation.
	Starting AB second half-transformation.
	Starting BB second half-transformation.
	Two-electron integral transformation complete.
	Frozen core energy     =   -125.95696979681009

	Size of irrep 0 of <AB|CD> integrals:      5.040 (MW) /     40.320 (MB)
	Size of irrep 1 of <AB|CD> integrals:      3.197 (MW) /     25.576 (MB)
	Size of irrep 2 of <AB|CD> integrals:      3.640 (MW) /     29.124 (MB)
	Size of irrep 3 of <AB|CD> integrals:      4.783 (MW) /     38.264 (MB)
	Total:                                    16.660 (MW) /    133.283 (MB)

	Size of irrep 0 of <ab|cd> integrals:      5.327 (MW) /     42.615 (MB)
	Size of irrep 1 of <ab|cd> integrals:      3.430 (MW) /     27.439 (MB)
	Size of irrep 2 of <ab|cd> integrals:      3.893 (MW) /     31.142 (MB)
	Size of irrep 3 of <ab|cd> integrals:      5.072 (MW) /     40.572 (MB)
	Total:                                    17.721 (MW) /    141.768 (MB)

	Size of irrep 0 of <Ab|Cd> integrals:     21.912 (MW) /    175.294 (MB)
	Size of irrep 1 of <Ab|Cd> integrals:     13.242 (MW) /    105.939 (MB)
	Size of irrep 2 of <Ab|Cd> integrals:     15.062 (MW) /    120.497 (MB)
	Size of irrep 3 of <Ab|Cd> integrals:     19.705 (MW) /    157.638 (MB)
	Total:                                    69.921 (MW) /    559.368 (MB)

	Size of irrep 0 of <IA|BC> integrals:      1.469 (MW) /     11.748 (MB)
	Size of irrep 1 of <IA|BC> integrals:      0.694 (MW) /      5.550 (MB)
	Size of irrep 2 of <IA|BC> integrals:      0.908 (MW) /      7.266 (MB)
	Size of irrep 3 of <IA|BC> integrals:      1.198 (MW) /      9.588 (MB)
	Total:                                     4.269 (MW) /     34.152 (MB)

	Size of irrep 0 of <ia|bc> integrals:      1.220 (MW) /      9.758 (MB)
	Size of irrep 1 of <ia|bc> integrals:      0.493 (MW) /      3.941 (MB)
	Size of irrep 2 of <ia|bc> integrals:      0.698 (MW) /      5.588 (MB)
	Size of irrep 3 of <ia|bc> integrals:      0.959 (MW) /      7.675 (MB)
	Total:                                     3.370 (MW) /     26.961 (MB)

	Size of irrep 0 of <Ia|Bc> integrals:      1.507 (MW) /     12.058 (MB)
	Size of irrep 1 of <Ia|Bc> integrals:      0.721 (MW) /      5.764 (MB)
	Size of irrep 2 of <Ia|Bc> integrals:      0.939 (MW) /      7.514 (MB)
	Size of irrep 3 of <Ia|Bc> integrals:      1.234 (MW) /      9.872 (MB)
	Total:                                     4.401 (MW) /     35.208 (MB)

	Size of irrep 0 of <iA|bC> integrals:      1.194 (MW) /      9.549 (MB)
	Size of irrep 1 of <iA|bC> integrals:      0.477 (MW) /      3.814 (MB)
	Size of irrep 2 of <iA|bC> integrals:      0.671 (MW) /      5.371 (MB)
	Size of irrep 3 of <iA|bC> integrals:      0.928 (MW) /      7.422 (MB)
	Total:                                     3.270 (MW) /     26.156 (MB)

	Size of irrep 0 of tIjAb amplitudes:       0.094 (MW) /      0.749 (MB)
	Size of irrep 1 of tIjAb amplitudes:       0.015 (MW) /      0.116 (MB)
	Size of irrep 2 of tIjAb amplitudes:       0.047 (MW) /      0.373 (MB)
	Size of irrep 3 of tIjAb amplitudes:       0.053 (MW) /      0.426 (MB)
	Total:                                     0.208 (MW) /      1.664 (MB)

	Nuclear Rep. energy          =     23.19664530989686
	SCF energy                   =   -150.87184097626087
	One-electron energy          =    -84.77484707335574
	Two-electron (AA) energy     =     10.19989122276021
	Two-electron (BB) energy     =      5.42293412696971
	Two-electron (AB) energy     =     21.04050523427745
	Two-electron energy          =     36.66333058400737
	Reference energy             =   -150.87184097626158

*** tstop() called on c5-7.compute.lan at Wed Mar 10 09:32:39 2021
Module time:
	user time   =      72.87 seconds =       1.21 minutes
	system time =      10.20 seconds =       0.17 minutes
	total time  =         25 seconds =       0.42 minutes
Total time:
	user time   =     123.02 seconds =       2.05 minutes
	system time =      11.39 seconds =       0.19 minutes
	total time  =         33 seconds =       0.55 minutes
            **************************
            *                        *
            *        CCENERGY        *
            *                        *
            **************************

    Nuclear Rep. energy (wfn)     =   23.196645309896859
    SCF energy          (wfn)     = -150.871840976260870
    Reference energy    (file100) = -150.871840976261581

    Input parameters:
    -----------------
    Wave function   =     CCSD_T
    Reference wfn   =     UHF
    Brueckner       =     No
    Memory (Mbytes) =     4000.0
    Maxiter         =     50
    R_Convergence   =     1.0e-10
    E_Convergence   =     1.0e-10
    Restart         =     Yes
    DIIS            =     Yes
    AO Basis        =     NONE
    ABCD            =     NEW
    Cache Level     =     2
    Cache Type      =     LRU
    Print Level     =     1
    Num. of threads =     12
    # Amps to Print =     10
    Print MP2 Amps? =     No
    Analyze T2 Amps =     No
    Print Pair Ener =     No
    Local CC        =     No
    SCS-MP2         =     False
    SCSN-MP2        =     False
    SCS-CCSD        =     False

MP2 correlation energy -0.4168266632198560
                Solving CC Amplitude Equations
                ------------------------------
  Iter             Energy              RMS        T1Diag      D1Diag    New D1Diag    D2Diag
  ----     ---------------------    ---------   ----------  ----------  ----------   --------
     0        -0.416826663219856    0.000e+00    0.000000    0.000000    0.000000    0.000000
     1        -0.427529282550512    5.695e-02    0.010514    0.000000    0.000000    0.000000
     2        -0.435714588708246    1.695e-02    0.011041    0.000000    0.000000    0.000000
     3        -0.437829662724671    8.596e-03    0.012918    0.000000    0.000000    0.000000
     4        -0.437705467136179    2.522e-03    0.013288    0.000000    0.000000    0.000000
     5        -0.437688704184746    1.346e-03    0.013452    0.000000    0.000000    0.000000
     6        -0.437715806633724    5.220e-04    0.013481    0.000000    0.000000    0.000000
     7        -0.437720712863497    2.783e-04    0.013479    0.000000    0.000000    0.000000
     8        -0.437721258876234    8.710e-05    0.013475    0.000000    0.000000    0.000000
     9        -0.437722641145003    4.651e-05    0.013476    0.000000    0.000000    0.000000
    10        -0.437721017850006    2.284e-05    0.013477    0.000000    0.000000    0.000000
    11        -0.437721169742995    1.265e-05    0.013478    0.000000    0.000000    0.000000
    12        -0.437721118137669    5.476e-06    0.013478    0.000000    0.000000    0.000000
    13        -0.437721161008534    2.051e-06    0.013478    0.000000    0.000000    0.000000
    14        -0.437721227653484    8.187e-07    0.013479    0.000000    0.000000    0.000000
    15        -0.437721232425978    2.232e-07    0.013479    0.000000    0.000000    0.000000
    16        -0.437721233217429    1.210e-07    0.013479    0.000000    0.000000    0.000000
    17        -0.437721234439465    3.847e-08    0.013479    0.000000    0.000000    0.000000
    18        -0.437721233811385    1.797e-08    0.013479    0.000000    0.000000    0.000000

      * MP2 total energy                      = -151.288667639481446
      * CCSD total energy                     = -151.309562209938008
      * CCSD(T) total energy                     = -151.321932639761172
*** Psi4 exiting successfully. Buy a developer a beer!
