                               Psi4 1.3.2 release

  ==> Input File <==

--------------------------------------------------------------------------
memory 4 GB

molecule  {
0 3
O   -1.519781476600   -0.028215155400    0.000000000000
H   -0.556983962500   -0.003535423700    0.000000000000
H   -1.780720290800    0.896896610700    0.000000000000
O    1.667078096900   -0.028074721100    0.000000000000
}
set {
basis aug-cc-pvtz
reference uhf
e_convergence 10
scf_type pk
freeze_core true
}

set ccenergy {
e_convergence 10
r_convergence 10
}

e = energy('ccsd(t)')

print_out('Stephenergy {}'.format(e))

--------------------------------------------------------------------------

    Molecular point group: cs

    Geometry (in Angstrom), charge = 0, multiplicity = 3:

       Center              X                  Y                   Z               Mass
    ------------   -----------------  -----------------  -----------------  -----------------
         O           -1.519781476630    -0.028215155356     0.000000000000    15.994914619570
         H           -0.556983962530    -0.003535423656     0.000000000000     1.007825032230
         H           -1.780720290830     0.896896610744     0.000000000000     1.007825032230
         O            1.667078096870    -0.028074721056     0.000000000000    15.994914619570

  Charge       = 0
  Multiplicity = 3
  Basis Set: AUG-CC-PVTZ
    Blend: AUG-CC-PVTZ

    Orbital Energies [Eh]
    ---------------------

    Alpha Occupied:

       1Ap   -20.734945     2Ap   -20.558468     3Ap    -1.444271
       4Ap    -1.342717     5Ap    -0.734805     1App   -0.734654
       6Ap    -0.709555     7Ap    -0.636886     8Ap    -0.574672
       2App   -0.501595

    Alpha Virtual:

       9Ap     0.034579    10Ap     0.053278    11Ap     0.127512
       3App    0.131560    12Ap     0.148056    13Ap     0.161201
      14Ap     0.183463     4App    0.186307    15Ap     0.211719
      16Ap     0.241656    17Ap     0.271780     5App    0.282628
      18Ap     0.293707     6App    0.323355    19Ap     0.372155
      20Ap     0.393187    21Ap     0.460169    22Ap     0.559327
       7App    0.600092    23Ap     0.608689    24Ap     0.643388
      25Ap     0.668789    26Ap     0.712299     8App    0.713087
       9App    0.734725    10App    0.747319    27Ap     0.766020
      28Ap     0.798079    11App    0.824784    29Ap     0.851781
      30Ap     0.865706    12App    0.883505    31Ap     0.923347
      13App    0.942341    32Ap     0.944425    33Ap     0.956535
      14App    0.983526    34Ap     0.986070    35Ap     1.043489
      36Ap     1.128079    37Ap     1.168833    15App    1.177456
      38Ap     1.194149    16App    1.261554    39Ap     1.272650
      40Ap     1.324418    17App    1.528540    41Ap     1.556474
      18App    1.600908    42Ap     1.690479    43Ap     1.819156
      44Ap     1.826847    19App    1.975612    45Ap     1.975646
      46Ap     1.995483    20App    2.011224    47Ap     2.017734
      21App    2.048679    48Ap     2.060906    22App    2.122973
      49Ap     2.164882    50Ap     2.166398    23App    2.211605
      24App    2.295019    51Ap     2.302617    52Ap     2.329095
      53Ap     2.415098    25App    2.449695    54Ap     2.461483
      26App    2.524431    55Ap     2.535694    56Ap     2.632286
      57Ap     2.671626    27App    2.728992    58Ap     2.751291
      59Ap     2.865275    60Ap     2.942523    28App    2.946345
      61Ap     3.699246    62Ap     3.894653    29App    4.035856
      30App    4.058530    63Ap     4.076218    31App    4.172823
      64Ap     4.200864    65Ap     4.274051    32App    4.298994
      66Ap     4.377589    33App    4.393332    67Ap     4.436504
      34App    4.440247    68Ap     4.578217    69Ap     4.783376
      70Ap     4.962547    35App    5.155488    71Ap     5.181378
      72Ap     5.306718    73Ap     5.374813    36App    5.527266
      74Ap     5.690547    75Ap     6.197762    37App    6.310238
      76Ap     6.310280    38App    6.372944    77Ap     6.375704
      39App    6.520910    78Ap     6.526663    79Ap     6.556997
      80Ap     6.635640    40App    6.724898    81Ap     6.812349
      41App    6.818493    82Ap     6.914357    42App    6.933936
      83Ap     6.967049    84Ap     7.049688    43App    7.147408
      44App    7.275258    85Ap     7.323246    45App    7.327521
      86Ap     7.359872    46App    7.442039    87Ap     7.658888
      88Ap     7.947245    89Ap     7.966598    90Ap     8.811510
      91Ap     9.398800    92Ap    16.530131

    Beta Occupied:

       1Ap   -20.656165     2Ap   -20.558608     3Ap    -1.343323
       4Ap    -1.101820     5Ap    -0.708547     6Ap    -0.581194
       7Ap    -0.542152     1App   -0.501650

    Beta Virtual:

       8Ap     0.034234     9Ap     0.046191     2App    0.047665
      10Ap     0.057486    11Ap     0.144217    12Ap     0.151016
       3App    0.160453    13Ap     0.179817    14Ap     0.210111
      15Ap     0.218130     4App    0.225938    16Ap     0.251294
      17Ap     0.273757     5App    0.282960    18Ap     0.295942
       6App    0.327106    19Ap     0.375978    20Ap     0.403953
      21Ap     0.460907    22Ap     0.562307     7App    0.632404
      23Ap     0.638988    24Ap     0.646434    25Ap     0.671831
      26Ap     0.712967     8App    0.726866     9App    0.735886
      10App    0.748783    27Ap     0.784968    28Ap     0.810608
      29Ap     0.856706    11App    0.867633    30Ap     0.918583
      12App    0.936249    31Ap     0.943928    13App    0.949548
      32Ap     0.954255    33Ap     0.973880    34Ap     1.015952
      14App    1.024856    35Ap     1.047569    36Ap     1.154777
      37Ap     1.176617    15App    1.180769    38Ap     1.219150
      16App    1.272658    39Ap     1.274848    40Ap     1.335161
      17App    1.529376    41Ap     1.562116    18App    1.602526
      42Ap     1.717482    43Ap     1.824381    44Ap     1.834330
      45Ap     2.002916    19App    2.013711    46Ap     2.013898
      20App    2.053259    47Ap     2.065966    21App    2.170886
      48Ap     2.179512    22App    2.179655    49Ap     2.204466
      50Ap     2.228956    23App    2.249075    24App    2.296963
      51Ap     2.317775    52Ap     2.343781    53Ap     2.422266
      25App    2.452126    54Ap     2.462301    26App    2.533077
      55Ap     2.542932    56Ap     2.638463    57Ap     2.682827
      27App    2.730155    58Ap     2.758248    59Ap     2.869824
      60Ap     2.945348    28App    2.947031    61Ap     3.699700
      62Ap     3.897514    29App    4.036088    30App    4.146163
      63Ap     4.180307    64Ap     4.243671    31App    4.255105
      65Ap     4.295770    32App    4.299342    66Ap     4.391996
      33App    4.393515    34App    4.441764    67Ap     4.467943
      68Ap     4.579209    69Ap     4.784742    70Ap     4.964844
      35App    5.155475    71Ap     5.181901    72Ap     5.306942
      73Ap     5.375885    36App    5.527354    74Ap     5.691186
      75Ap     6.198227    37App    6.419195    76Ap     6.419220
      38App    6.448326    77Ap     6.451151    78Ap     6.532940
      39App    6.575822    79Ap     6.606824    80Ap     6.681709
      40App    6.729256    81Ap     6.916597    41App    7.004528
      82Ap     7.005537    42App    7.042190    83Ap     7.071558
      84Ap     7.129946    43App    7.149733    44App    7.275703
      85Ap     7.323399    45App    7.328368    86Ap     7.360353
      46App    7.442482    87Ap     7.660173    88Ap     7.947640
      89Ap     7.966746    90Ap     8.813966    91Ap     9.473342
      92Ap    16.530695

    Final Occupation by Irrep:
             Ap   App
    DOCC [     7,    1 ]
    SOCC [     1,    1 ]

  @UHF Final Energy:  -150.87439836773788

   => Energetics <=

    Nuclear Repulsion Energy =             22.8645763055935660
    One-Electron Energy =                -253.5119230298605544
    Two-Electron Energy =                  79.7729483565291133
    Total Energy =                       -150.8743983677378537

  UHF NO Occupations:
  HONO-2 :    7 Ap 1.9970292
  HONO-1 :    8 Ap 1.0000000
  HONO-0 :    2App 1.0000000
  LUNO+0 :    9 Ap 0.0029708
  LUNO+1 :   10 Ap 0.0017125
  LUNO+2 :   11 Ap 0.0000024
  LUNO+3 :   12 Ap 0.0000019

Computation Completed

Properties will be evaluated at   0.000000,   0.000000,   0.000000 [a0]

Properties computed using the SCF density matrix

  Nuclear Dipole Moment: [e a0]
     X:    -2.1908      Y:     0.8372      Z:     0.0000

  Electronic Dipole Moment: [e a0]
     X:     2.7520      Y:    -0.2167      Z:     0.0000

  Dipole Moment: [e a0]
     X:     0.5612      Y:     0.6206      Z:     0.0000     Total:     0.8367

  Dipole Moment: [D]
     X:     1.4263      Y:     1.5773      Z:     0.0000     Total:     2.1266

*** tstop() called on c1-9.compute.lan at Tue Mar  9 15:13:38 2021
Module time:
	user time   =      66.44 seconds =       1.11 minutes
	system time =       3.59 seconds =       0.06 minutes
	total time  =          8 seconds =       0.13 minutes
Total time:
	user time   =      66.44 seconds =       1.11 minutes
	system time =       3.59 seconds =       0.06 minutes
	total time  =          8 seconds =       0.13 minutes
 MINTS: Wrapper to libmints.
   by Justin Turney

   Calculation information:
      Number of threads:                12
      Number of atoms:                   4
      Number of AO shells:              46
      Number of SO shells:              46
      Number of primitives:             82
      Number of atomic orbitals:       160
      Number of basis functions:       138

      Number of irreps:                  2
      Integral cutoff                 0.00e+00
      Number of functions per irrep: [  92   46 ]

 OEINTS: Overlap, kinetic, potential, dipole, and quadrupole integrals
         stored in file 35.

      Computing two-electron integrals...done
      Computed 22940060 non-zero two-electron integrals.
        Stored in file 33.

*** tstart() called on c1-9.compute.lan
*** at Tue Mar  9 15:13:42 2021

	Wfn Parameters:
	--------------------
	Wavefunction         = CCSD_T
	Number of irreps     = 2
	Number of MOs        = 138
	Number of active MOs = 136
	AO-Basis             = NONE
	Semicanonical        = false
	Reference            = UHF
	Print Level          = 1

	IRREP	# MOs	# FZDC	# DOCC	# SOCC	# VIRT	# FZVR
	-----	-----	------	------	------	------	------
	 Ap	   92	    2	    5	    1	    84	    0
	 App	   46	    0	    1	    1	    44	    0
	Transforming integrals...
	IWL integrals will be deleted.
	(OO|OO)...
	Presorting SO-basis two-electron integrals.
	Sorting File: SO Ints (nn|nn) nbuckets = 1
	Transforming the one-electron integrals and constructing Fock matrices
	Starting AA/AB first half-transformation.
	Sorting AA/AB half-transformed integrals.
	Starting BB first half-transformation.
	Sorting BB half-transformed integrals.
	First half integral transformation complete.
	Starting AA second half-transformation.
	Starting AB second half-transformation.
	Starting BB second half-transformation.
	Two-electron integral transformation complete.
	(OO|OV)...
	Starting AA second half-transformation.
	Starting AB second half-transformation.
	Starting BB second half-transformation.
	Two-electron integral transformation complete.
	(OO|VV)...
	Starting AA second half-transformation.
	Starting AB second half-transformation.
	Starting BB second half-transformation.
	Two-electron integral transformation complete.
	(OV|OO)...
	Starting AA/AB first half-transformation.
	Sorting AA/AB half-transformed integrals.
	Starting BB first half-transformation.
	Sorting BB half-transformed integrals.
	First half integral transformation complete.
	Starting AA second half-transformation.
	Starting AB second half-transformation.
	Starting BB second half-transformation.
	Two-electron integral transformation complete.
	(OV|OV)...
	Starting AA second half-transformation.
	Starting AB second half-transformation.
	Starting BB second half-transformation.
	Two-electron integral transformation complete.
	(OV|VV)...
	Starting AA second half-transformation.
	Starting AB second half-transformation.
	Starting BB second half-transformation.
	Two-electron integral transformation complete.
	(VV|OO)...
	Starting AA/AB first half-transformation.
	Sorting AA/AB half-transformed integrals.
	Starting BB first half-transformation.
	Sorting BB half-transformed integrals.
	First half integral transformation complete.
	Starting AA second half-transformation.
	Starting AB second half-transformation.
	Starting BB second half-transformation.
	Two-electron integral transformation complete.
	(VV|OV)...
	Starting AA second half-transformation.
	Starting AB second half-transformation.
	Starting BB second half-transformation.
	Two-electron integral transformation complete.
	(VV|VV)...
	Starting AA second half-transformation.
	Starting AB second half-transformation.
	Starting BB second half-transformation.
	Two-electron integral transformation complete.
	Frozen core energy     =   -125.83263644119737

	Size of irrep 0 of <AB|CD> integrals:     19.643 (MW) /    157.141 (MB)
	Size of irrep 1 of <AB|CD> integrals:     13.660 (MW) /    109.283 (MB)
	Total:                                    33.303 (MW) /    266.424 (MB)

	Size of irrep 0 of <ab|cd> integrals:     20.794 (MW) /    166.349 (MB)
	Size of irrep 1 of <ab|cd> integrals:     14.631 (MW) /    117.045 (MB)
	Total:                                    35.424 (MW) /    283.394 (MB)

	Size of irrep 0 of <Ab|Cd> integrals:     83.174 (MW) /    665.395 (MB)
	Size of irrep 1 of <Ab|Cd> integrals:     56.550 (MW) /    452.403 (MB)
	Total:                                   139.725 (MW) /   1117.798 (MB)

	Size of irrep 0 of <IA|BC> integrals:      5.323 (MW) /     42.586 (MB)
	Size of irrep 1 of <IA|BC> integrals:      3.193 (MW) /     25.547 (MB)
	Total:                                     8.517 (MW) /     68.133 (MB)

	Size of irrep 0 of <ia|bc> integrals:      4.348 (MW) /     34.780 (MB)
	Size of irrep 1 of <ia|bc> integrals:      2.372 (MW) /     18.972 (MB)
	Total:                                     6.719 (MW) /     53.752 (MB)

	Size of irrep 0 of <Ia|Bc> integrals:      5.472 (MW) /     43.776 (MB)
	Size of irrep 1 of <Ia|Bc> integrals:      3.309 (MW) /     26.470 (MB)
	Total:                                     8.781 (MW) /     70.246 (MB)

	Size of irrep 0 of <iA|bC> integrals:      4.232 (MW) /     33.853 (MB)
	Size of irrep 1 of <iA|bC> integrals:      2.286 (MW) /     18.289 (MB)
	Total:                                     6.518 (MW) /     52.142 (MB)

	Size of irrep 0 of tIjAb amplitudes:       0.292 (MW) /      2.335 (MB)
	Size of irrep 1 of tIjAb amplitudes:       0.120 (MW) /      0.963 (MB)
	Total:                                     0.412 (MW) /      3.297 (MB)

	Nuclear Rep. energy          =     22.86457630559357
	SCF energy                   =   -150.87439836773788
	One-electron energy          =    -84.35483599637347
	Two-electron (AA) energy     =     10.12664927911611
	Two-electron (BB) energy     =      5.38830267189341
	Two-electron (AB) energy     =     20.93354581322836
	Two-electron energy          =     36.44849776423789
	Reference energy             =   -150.87439836773939

*** tstop() called on c1-9.compute.lan at Tue Mar  9 15:14:32 2021
Module time:
	user time   =     155.44 seconds =       2.59 minutes
	system time =      29.36 seconds =       0.49 minutes
	total time  =         50 seconds =       0.83 minutes
Total time:
	user time   =     228.34 seconds =       3.81 minutes
	system time =      33.79 seconds =       0.56 minutes
	total time  =         62 seconds =       1.03 minutes
            **************************
            *                        *
            *        CCENERGY        *
            *                        *
            **************************

    Nuclear Rep. energy (wfn)     =   22.864576305593566
    SCF energy          (wfn)     = -150.874398367737882
    Reference energy    (file100) = -150.874398367739389

    Input parameters:
    -----------------
    Wave function   =     CCSD_T
    Reference wfn   =     UHF
    Brueckner       =     No
    Memory (Mbytes) =     4000.0
    Maxiter         =     50
    R_Convergence   =     1.0e-10
    E_Convergence   =     1.0e-10
    Restart         =     Yes
    DIIS            =     Yes
    AO Basis        =     NONE
    ABCD            =     NEW
    Cache Level     =     2
    Cache Type      =     LRU
    Print Level     =     1
    Num. of threads =     12
    # Amps to Print =     10
    Print MP2 Amps? =     No
    Analyze T2 Amps =     No
    Print Pair Ener =     No
    Local CC        =     No
    SCS-MP2         =     False
    SCSN-MP2        =     False
    SCS-CCSD        =     False

MP2 correlation energy -0.4166049211248597
                Solving CC Amplitude Equations
                ------------------------------
  Iter             Energy              RMS        T1Diag      D1Diag    New D1Diag    D2Diag
  ----     ---------------------    ---------   ----------  ----------  ----------   --------
     0        -0.416604921124860    0.000e+00    0.000000    0.000000    0.000000    0.000000
     1        -0.427331788414039    5.685e-02    0.010542    0.000000    0.000000    0.000000
     2        -0.435425817812371    1.688e-02    0.011030    0.000000    0.000000    0.000000
     3        -0.437541958185487    8.571e-03    0.012901    0.000000    0.000000    0.000000
     4        -0.437416820855657    2.534e-03    0.013269    0.000000    0.000000    0.000000
     5        -0.437401742821199    1.327e-03    0.013426    0.000000    0.000000    0.000000
     6        -0.437429048819069    5.164e-04    0.013449    0.000000    0.000000    0.000000
     7        -0.437433862685982    2.680e-04    0.013444    0.000000    0.000000    0.000000
     8        -0.437434429734827    9.684e-05    0.013439    0.000000    0.000000    0.000000
     9        -0.437435836054814    6.950e-05    0.013441    0.000000    0.000000    0.000000
    10        -0.437434275833245    5.811e-05    0.013442    0.000000    0.000000    0.000000
    11        -0.437434406175993    5.484e-05    0.013443    0.000000    0.000000    0.000000
    12        -0.437434205743401    5.311e-05    0.013444    0.000000    0.000000    0.000000
    13        -0.437434194170134    5.215e-05    0.013446    0.000000    0.000000    0.000000
    14        -0.437435114478341    5.086e-05    0.013457    0.000000    0.000000    0.000000
    15        -0.437435449668600    4.645e-05    0.013502    0.000000    0.000000    0.000000
    16        -0.437435220034128    3.350e-05    0.013621    0.000000    0.000000    0.000000
    17        -0.437434922514502    1.698e-05    0.013693    0.000000    0.000000    0.000000
    18        -0.437434775974598    7.985e-06    0.013713    0.000000    0.000000    0.000000
    19        -0.437435022513469    3.515e-06    0.013719    0.000000    0.000000    0.000000
    20        -0.437435140569941    1.552e-06    0.013720    0.000000    0.000000    0.000000
    21        -0.437435147470530    6.195e-07    0.013720    0.000000    0.000000    0.000000
    22        -0.437435148566860    2.829e-07    0.013720    0.000000    0.000000    0.000000
    23        -0.437435147850897    1.427e-07    0.013720    0.000000    0.000000    0.000000
    24        -0.437435147049585    5.518e-08    0.013720    0.000000    0.000000    0.000000
    25        -0.437435147953675    2.745e-08    0.013720    0.000000    0.000000    0.000000
    26        -0.437435148390616    1.931e-08    0.013720    0.000000    0.000000    0.000000
    27        -0.437435148523575    1.762e-08    0.013720    0.000000    0.000000    0.000000
    28        -0.437435148501069    1.701e-08    0.013720    0.000000    0.000000    0.000000
    29        -0.437435148406683    1.660e-08    0.013720    0.000000    0.000000    0.000000
    30        -0.437435148218653    1.609e-08    0.013720    0.000000    0.000000    0.000000
    31        -0.437435148242963    1.457e-08    0.013720    0.000000    0.000000    0.000000
    32        -0.437435148492951    9.383e-09    0.013720    0.000000    0.000000    0.000000
    33        -0.437435148589088    4.368e-09    0.013720    0.000000    0.000000    0.000000
    34        -0.437435148649785    1.853e-09    0.013720    0.000000    0.000000    0.000000
    35        -0.437435148657510    7.236e-10    0.013720    0.000000    0.000000    0.000000
    36        -0.437435148656966    2.911e-10    0.013720    0.000000    0.000000    0.000000

      * MP2 total energy                      = -151.291003288864260
      * CCSD total energy                     = -151.311833516395581
      * CCSD(T) total energy                     = -151.324191247865230
*** Psi4 exiting successfully. Buy a developer a beer!
