                               Psi4 1.3.2 release

  ==> Input File <==

--------------------------------------------------------------------------
memory 4 GB

molecule  {
0 3
O   -1.520512699176   -0.026868967589    0.000000000000
H   -0.557836621776   -0.014203018989    0.000000000000
H   -1.786810495716    0.897343382899    0.000000000000
O    1.668246782974   -0.028776904045    0.000000000000
}
set {
basis aug-cc-pvtz
reference uhf
e_convergence 10
scf_type pk
freeze_core true
}

set ccenergy {
e_convergence 10
r_convergence 10
}

e = energy('ccsd(t)')

print_out('Stephenergy {}'.format(e))

--------------------------------------------------------------------------

    Molecular point group: cs

    Geometry (in Angstrom), charge = 0, multiplicity = 3:

       Center              X                  Y                   Z               Mass
    ------------   -----------------  -----------------  -----------------  -----------------
         O           -1.520512699176    -0.026868967589     0.000000000000    15.994914619570
         H           -0.557836621776    -0.014203018989     0.000000000000     1.007825032230
         H           -1.786810495716     0.897343382899     0.000000000000     1.007825032230
         O            1.668246782974    -0.028776904045     0.000000000000    15.994914619570

  Charge       = 0
  Multiplicity = 3
  Basis Set: AUG-CC-PVTZ
    Blend: AUG-CC-PVTZ

    Orbital Energies [Eh]
    ---------------------

    Alpha Occupied:

       1Ap   -20.734893     2Ap   -20.558070     3Ap    -1.444213
       4Ap    -1.341941     5Ap    -0.734741     1App   -0.734600
       6Ap    -0.711383     7Ap    -0.636876     8Ap    -0.572717
       2App   -0.501304

    Alpha Virtual:

       9Ap     0.034617    10Ap     0.053217    11Ap     0.127575
       3App    0.131491    12Ap     0.148142    13Ap     0.161179
      14Ap     0.183284     4App    0.186206    15Ap     0.211406
      16Ap     0.241792    17Ap     0.271643     5App    0.282458
      18Ap     0.293958     6App    0.324006    19Ap     0.372391
      20Ap     0.392550    21Ap     0.460075    22Ap     0.559289
       7App    0.599981    23Ap     0.608399    24Ap     0.644225
      25Ap     0.667239     8App    0.712784    26Ap     0.713252
       9App    0.734715    10App    0.746384    27Ap     0.765550
      28Ap     0.796878    11App    0.824902    29Ap     0.851066
      30Ap     0.865195    12App    0.882413    31Ap     0.923129
      13App    0.943665    32Ap     0.943859    33Ap     0.956549
      14App    0.983197    34Ap     0.988478    35Ap     1.043696
      36Ap     1.127802    37Ap     1.168668    15App    1.176812
      38Ap     1.194981    16App    1.261074    39Ap     1.272193
      40Ap     1.322725    17App    1.528811    41Ap     1.561583
      18App    1.603514    42Ap     1.689732    43Ap     1.811937
      44Ap     1.825212    19App    1.975625    45Ap     1.975662
      46Ap     1.996870    20App    2.011112    47Ap     2.018098
      21App    2.048040    48Ap     2.061676    22App    2.122714
      49Ap     2.163123    50Ap     2.164790    23App    2.211538
      24App    2.293958    51Ap     2.301121    52Ap     2.327218
      53Ap     2.414393    25App    2.447015    54Ap     2.459357
      26App    2.524585    55Ap     2.535583    56Ap     2.632850
      57Ap     2.671141    27App    2.730161    58Ap     2.753326
      59Ap     2.867232    28App    2.945722    60Ap     2.949120
      61Ap     3.697876    62Ap     3.895545    29App    4.031095
      30App    4.058498    63Ap     4.077009    31App    4.173407
      64Ap     4.210425    65Ap     4.268140    32App    4.310880
      66Ap     4.381251    33App    4.393522    34App    4.438773
      67Ap     4.440961    68Ap     4.571103    69Ap     4.777571
      70Ap     4.955721    35App    5.158211    71Ap     5.169674
      72Ap     5.316093    73Ap     5.373984    36App    5.522266
      74Ap     5.703369    75Ap     6.187767    37App    6.310263
      76Ap     6.310304    38App    6.372712    77Ap     6.375698
      39App    6.520607    78Ap     6.530110    79Ap     6.557439
      80Ap     6.635099    40App    6.724298    81Ap     6.812033
      41App    6.818434    82Ap     6.902695    42App    6.933854
      83Ap     6.964834    84Ap     7.049564    43App    7.149022
      44App    7.274207    45App    7.324021    85Ap     7.331298
      86Ap     7.360490    46App    7.443784    87Ap     7.664971
      88Ap     7.947997    89Ap     7.968632    90Ap     8.802252
      91Ap     9.392006    92Ap    16.539763

    Beta Occupied:

       1Ap   -20.656114     2Ap   -20.558210     3Ap    -1.342544
       4Ap    -1.101762     5Ap    -0.710439     6Ap    -0.579383
       7Ap    -0.541919     1App   -0.501359

    Beta Virtual:

       8Ap     0.034253     9Ap     0.046086     2App    0.047702
      10Ap     0.057617    11Ap     0.144209    12Ap     0.151017
       3App    0.160270    13Ap     0.179655    14Ap     0.210177
      15Ap     0.217948     4App    0.225977    16Ap     0.251387
      17Ap     0.273593     5App    0.282804    18Ap     0.296238
       6App    0.327723    19Ap     0.376205    20Ap     0.403155
      21Ap     0.460813    22Ap     0.562176     7App    0.632270
      23Ap     0.638742    24Ap     0.647314    25Ap     0.670129
      26Ap     0.713988     8App    0.726542     9App    0.735955
      10App    0.747849    27Ap     0.784147    28Ap     0.809294
      29Ap     0.856495    11App    0.866780    30Ap     0.918284
      12App    0.936594    31Ap     0.943561    13App    0.950140
      32Ap     0.953376    33Ap     0.976474    34Ap     1.016234
      14App    1.024782    35Ap     1.047764    36Ap     1.154203
      37Ap     1.176852    15App    1.180024    38Ap     1.219632
      16App    1.272218    39Ap     1.274441    40Ap     1.333583
      17App    1.529652    41Ap     1.567593    18App    1.605134
      42Ap     1.716356    43Ap     1.816567    44Ap     1.833061
      45Ap     2.004607    19App    2.013739    46Ap     2.013950
      20App    2.052651    47Ap     2.066673    21App    2.170698
      22App    2.179478    48Ap     2.179707    49Ap     2.202976
      50Ap     2.226370    23App    2.248926    24App    2.295957
      51Ap     2.316358    52Ap     2.342464    53Ap     2.421848
      25App    2.449501    54Ap     2.460222    26App    2.533161
      55Ap     2.542839    56Ap     2.638923    57Ap     2.682242
      27App    2.731313    58Ap     2.760410    59Ap     2.871759
      28App    2.946408    60Ap     2.951818    61Ap     3.698370
      62Ap     3.898261    29App    4.031295    30App    4.146760
      63Ap     4.189744    64Ap     4.242276    31App    4.255145
      65Ap     4.292335    32App    4.311148    33App    4.393688
      66Ap     4.398940    34App    4.440336    67Ap     4.468925
      68Ap     4.572140    69Ap     4.778962    70Ap     4.958017
      35App    5.158197    71Ap     5.170235    72Ap     5.316284
      73Ap     5.375102    36App    5.522356    74Ap     5.704010
      75Ap     6.188197    37App    6.419230    76Ap     6.419256
      38App    6.448115    77Ap     6.451279    78Ap     6.537216
      39App    6.575542    79Ap     6.606278    80Ap     6.681233
      40App    6.728580    81Ap     6.903211    41App    7.004566
      82Ap     7.005312    42App    7.042186    83Ap     7.070968
      84Ap     7.129910    43App    7.151155    44App    7.274659
      45App    7.324918    85Ap     7.331313    86Ap     7.361056
      46App    7.444223    87Ap     7.666339    88Ap     7.948138
      89Ap     7.968953    90Ap     8.804683    91Ap     9.466589
      92Ap    16.540332

    Final Occupation by Irrep:
             Ap   App
    DOCC [     7,    1 ]
    SOCC [     1,    1 ]

  @UHF Final Energy:  -150.87443619642841

   => Energetics <=

    Nuclear Repulsion Energy =             22.8505545605398837
    One-Electron Energy =                -253.4875143038779584
    Two-Electron Energy =                  79.7625235469096765
    Total Energy =                       -150.8744361964284053

  UHF NO Occupations:
  HONO-2 :    7 Ap 1.9970293
  HONO-1 :    2App 1.0000000
  HONO-0 :    8 Ap 1.0000000
  LUNO+0 :    9 Ap 0.0029707
  LUNO+1 :   10 Ap 0.0017123
  LUNO+2 :   11 Ap 0.0000024
  LUNO+3 :   12 Ap 0.0000019

Computation Completed

Properties will be evaluated at   0.000000,   0.000000,   0.000000 [a0]

Properties computed using the SCF density matrix

  Nuclear Dipole Moment: [e a0]
     X:    -2.1973      Y:     0.8276      Z:     0.0000

  Electronic Dipole Moment: [e a0]
     X:     2.7561      Y:    -0.2136      Z:     0.0000

  Dipole Moment: [e a0]
     X:     0.5588      Y:     0.6140      Z:     0.0000     Total:     0.8302

  Dipole Moment: [D]
     X:     1.4203      Y:     1.5607      Z:     0.0000     Total:     2.1102

*** tstop() called on d1-14.compute.lan at Tue Mar  9 14:46:07 2021
Module time:
	user time   =      62.64 seconds =       1.04 minutes
	system time =       4.31 seconds =       0.07 minutes
	total time  =          7 seconds =       0.12 minutes
Total time:
	user time   =      62.64 seconds =       1.04 minutes
	system time =       4.31 seconds =       0.07 minutes
	total time  =          7 seconds =       0.12 minutes
 MINTS: Wrapper to libmints.
   by Justin Turney

   Calculation information:
      Number of threads:                12
      Number of atoms:                   4
      Number of AO shells:              46
      Number of SO shells:              46
      Number of primitives:             82
      Number of atomic orbitals:       160
      Number of basis functions:       138

      Number of irreps:                  2
      Integral cutoff                 0.00e+00
      Number of functions per irrep: [  92   46 ]

 OEINTS: Overlap, kinetic, potential, dipole, and quadrupole integrals
         stored in file 35.

      Computing two-electron integrals...done
      Computed 22940300 non-zero two-electron integrals.
        Stored in file 33.

*** tstart() called on d1-14.compute.lan
*** at Tue Mar  9 14:46:12 2021

	Wfn Parameters:
	--------------------
	Wavefunction         = CCSD_T
	Number of irreps     = 2
	Number of MOs        = 138
	Number of active MOs = 136
	AO-Basis             = NONE
	Semicanonical        = false
	Reference            = UHF
	Print Level          = 1

	IRREP	# MOs	# FZDC	# DOCC	# SOCC	# VIRT	# FZVR
	-----	-----	------	------	------	------	------
	 Ap	   92	    2	    5	    1	    84	    0
	 App	   46	    0	    1	    1	    44	    0
	Transforming integrals...
	IWL integrals will be deleted.
	(OO|OO)...
	Presorting SO-basis two-electron integrals.
	Sorting File: SO Ints (nn|nn) nbuckets = 1
	Transforming the one-electron integrals and constructing Fock matrices
	Starting AA/AB first half-transformation.
	Sorting AA/AB half-transformed integrals.
	Starting BB first half-transformation.
	Sorting BB half-transformed integrals.
	First half integral transformation complete.
	Starting AA second half-transformation.
	Starting AB second half-transformation.
	Starting BB second half-transformation.
	Two-electron integral transformation complete.
	(OO|OV)...
	Starting AA second half-transformation.
	Starting AB second half-transformation.
	Starting BB second half-transformation.
	Two-electron integral transformation complete.
	(OO|VV)...
	Starting AA second half-transformation.
	Starting AB second half-transformation.
	Starting BB second half-transformation.
	Two-electron integral transformation complete.
	(OV|OO)...
	Starting AA/AB first half-transformation.
	Sorting AA/AB half-transformed integrals.
	Starting BB first half-transformation.
	Sorting BB half-transformed integrals.
	First half integral transformation complete.
	Starting AA second half-transformation.
	Starting AB second half-transformation.
	Starting BB second half-transformation.
	Two-electron integral transformation complete.
	(OV|OV)...
	Starting AA second half-transformation.
	Starting AB second half-transformation.
	Starting BB second half-transformation.
	Two-electron integral transformation complete.
	(OV|VV)...
	Starting AA second half-transformation.
	Starting AB second half-transformation.
	Starting BB second half-transformation.
	Two-electron integral transformation complete.
	(VV|OO)...
	Starting AA/AB first half-transformation.
	Sorting AA/AB half-transformed integrals.
	Starting BB first half-transformation.
	Sorting BB half-transformed integrals.
	First half integral transformation complete.
	Starting AA second half-transformation.
	Starting AB second half-transformation.
	Starting BB second half-transformation.
	Two-electron integral transformation complete.
	(VV|OV)...
	Starting AA second half-transformation.
	Starting AB second half-transformation.
	Starting BB second half-transformation.
	Two-electron integral transformation complete.
	(VV|VV)...
	Starting AA second half-transformation.
	Starting AB second half-transformation.
	Starting BB second half-transformation.
	Two-electron integral transformation complete.
	Frozen core energy     =   -125.82855321324077

	Size of irrep 0 of <AB|CD> integrals:     19.643 (MW) /    157.141 (MB)
	Size of irrep 1 of <AB|CD> integrals:     13.660 (MW) /    109.283 (MB)
	Total:                                    33.303 (MW) /    266.424 (MB)

	Size of irrep 0 of <ab|cd> integrals:     20.794 (MW) /    166.349 (MB)
	Size of irrep 1 of <ab|cd> integrals:     14.631 (MW) /    117.045 (MB)
	Total:                                    35.424 (MW) /    283.394 (MB)

	Size of irrep 0 of <Ab|Cd> integrals:     83.174 (MW) /    665.395 (MB)
	Size of irrep 1 of <Ab|Cd> integrals:     56.550 (MW) /    452.403 (MB)
	Total:                                   139.725 (MW) /   1117.798 (MB)

	Size of irrep 0 of <IA|BC> integrals:      5.323 (MW) /     42.586 (MB)
	Size of irrep 1 of <IA|BC> integrals:      3.193 (MW) /     25.547 (MB)
	Total:                                     8.517 (MW) /     68.133 (MB)

	Size of irrep 0 of <ia|bc> integrals:      4.348 (MW) /     34.780 (MB)
	Size of irrep 1 of <ia|bc> integrals:      2.372 (MW) /     18.972 (MB)
	Total:                                     6.719 (MW) /     53.752 (MB)

	Size of irrep 0 of <Ia|Bc> integrals:      5.472 (MW) /     43.776 (MB)
	Size of irrep 1 of <Ia|Bc> integrals:      3.309 (MW) /     26.470 (MB)
	Total:                                     8.781 (MW) /     70.246 (MB)

	Size of irrep 0 of <iA|bC> integrals:      4.232 (MW) /     33.853 (MB)
	Size of irrep 1 of <iA|bC> integrals:      2.286 (MW) /     18.289 (MB)
	Total:                                     6.518 (MW) /     52.142 (MB)

	Size of irrep 0 of tIjAb amplitudes:       0.292 (MW) /      2.335 (MB)
	Size of irrep 1 of tIjAb amplitudes:       0.120 (MW) /      0.963 (MB)
	Total:                                     0.412 (MW) /      3.297 (MB)

	Nuclear Rep. energy          =     22.85055456053988
	SCF energy                   =   -150.87443619642841
	One-electron energy          =    -84.33769354863728
	Two-electron (AA) energy     =     10.12436134383554
	Two-electron (BB) energy     =      5.38705725935689
	Two-electron (AB) energy     =     20.92983740171530
	Two-electron energy          =     36.44125600490772
	Reference energy             =   -150.87443619643042

*** tstop() called on d1-14.compute.lan at Tue Mar  9 14:47:18 2021
Module time:
	user time   =     358.16 seconds =       5.97 minutes
	system time =      59.26 seconds =       0.99 minutes
	total time  =         66 seconds =       1.10 minutes
Total time:
	user time   =     427.53 seconds =       7.13 minutes
	system time =      64.52 seconds =       1.08 minutes
	total time  =         78 seconds =       1.30 minutes
            **************************
            *                        *
            *        CCENERGY        *
            *                        *
            **************************

    Nuclear Rep. energy (wfn)     =   22.850554560539884
    SCF energy          (wfn)     = -150.874436196428405
    Reference energy    (file100) = -150.874436196430423

    Input parameters:
    -----------------
    Wave function   =     CCSD_T
    Reference wfn   =     UHF
    Brueckner       =     No
    Memory (Mbytes) =     4000.0
    Maxiter         =     50
    R_Convergence   =     1.0e-10
    E_Convergence   =     1.0e-10
    Restart         =     Yes
    DIIS            =     Yes
    AO Basis        =     NONE
    ABCD            =     NEW
    Cache Level     =     2
    Cache Type      =     LRU
    Print Level     =     1
    Num. of threads =     12
    # Amps to Print =     10
    Print MP2 Amps? =     No
    Analyze T2 Amps =     No
    Print Pair Ener =     No
    Local CC        =     No
    SCS-MP2         =     False
    SCSN-MP2        =     False
    SCS-CCSD        =     False

MP2 correlation energy -0.4165316408172494
                Solving CC Amplitude Equations
                ------------------------------
  Iter             Energy              RMS        T1Diag      D1Diag    New D1Diag    D2Diag
  ----     ---------------------    ---------   ----------  ----------  ----------   --------
     0        -0.416531640817249    0.000e+00    0.000000    0.000000    0.000000    0.000000
     1        -0.427275343614908    5.683e-02    0.010537    0.000000    0.000000    0.000000
     2        -0.435362941030770    1.687e-02    0.011024    0.000000    0.000000    0.000000
     3        -0.437478328351600    8.569e-03    0.012893    0.000000    0.000000    0.000000
     4        -0.437353412194801    2.535e-03    0.013261    0.000000    0.000000    0.000000
     5        -0.437338289730838    1.327e-03    0.013418    0.000000    0.000000    0.000000
     6        -0.437365645546171    5.165e-04    0.013441    0.000000    0.000000    0.000000
     7        -0.437370471205230    2.680e-04    0.013436    0.000000    0.000000    0.000000
     8        -0.437371029408718    9.706e-05    0.013432    0.000000    0.000000    0.000000
     9        -0.437372441939921    6.985e-05    0.013433    0.000000    0.000000    0.000000
    10        -0.437370883361994    5.856e-05    0.013434    0.000000    0.000000    0.000000
    11        -0.437371007923435    5.531e-05    0.013435    0.000000    0.000000    0.000000
    12        -0.437370810700750    5.359e-05    0.013437    0.000000    0.000000    0.000000
    13        -0.437370789159376    5.263e-05    0.013439    0.000000    0.000000    0.000000
    14        -0.437371718541154    5.132e-05    0.013449    0.000000    0.000000    0.000000
    15        -0.437372062022765    4.682e-05    0.013496    0.000000    0.000000    0.000000
    16        -0.437371819262939    3.371e-05    0.013618    0.000000    0.000000    0.000000
    17        -0.437371531699131    1.709e-05    0.013691    0.000000    0.000000    0.000000
    18        -0.437371384075453    8.024e-06    0.013712    0.000000    0.000000    0.000000
    19        -0.437371627956612    3.529e-06    0.013717    0.000000    0.000000    0.000000
    20        -0.437371746880356    1.554e-06    0.013718    0.000000    0.000000    0.000000
    21        -0.437371753219478    6.205e-07    0.013718    0.000000    0.000000    0.000000
    22        -0.437371754157885    2.796e-07    0.013718    0.000000    0.000000    0.000000
    23        -0.437371753490488    1.398e-07    0.013718    0.000000    0.000000    0.000000
    24        -0.437371752700547    5.328e-08    0.013718    0.000000    0.000000    0.000000
    25        -0.437371753594061    2.639e-08    0.013718    0.000000    0.000000    0.000000
    26        -0.437371754021388    1.842e-08    0.013718    0.000000    0.000000    0.000000
    27        -0.437371754145964    1.674e-08    0.013718    0.000000    0.000000    0.000000
    28        -0.437371754125411    1.614e-08    0.013718    0.000000    0.000000    0.000000
    29        -0.437371754033508    1.573e-08    0.013718    0.000000    0.000000    0.000000
    30        -0.437371753852175    1.521e-08    0.013718    0.000000    0.000000    0.000000
    31        -0.437371753890342    1.366e-08    0.013719    0.000000    0.000000    0.000000
    32        -0.437371754128958    8.652e-09    0.013719    0.000000    0.000000    0.000000
    33        -0.437371754214945    3.999e-09    0.013719    0.000000    0.000000    0.000000
    34        -0.437371754269420    1.721e-09    0.013719    0.000000    0.000000    0.000000
    35        -0.437371754275668    6.713e-10    0.013719    0.000000    0.000000    0.000000
    36        -0.437371754274770    2.648e-10    0.013719    0.000000    0.000000    0.000000

      * MP2 total energy                      = -151.290967837247678
      * CCSD total energy                     = -151.311807950704605
      * CCSD(T) total energy                     = -151.324159585844200
*** Psi4 exiting successfully. Buy a developer a beer!
