                               Psi4 1.3.2 release

  ==> Input File <==

--------------------------------------------------------------------------
memory 4 GB

molecule  {
0 3
O   -1.520512699176   -0.026868967589    0.000000000000
H   -0.560397290291   -0.014215429281    0.000000000000
H   -1.784195250418    0.896661152266    0.000000000000
O    1.668243344141   -0.028733135352    0.000000000000
}
set {
basis aug-cc-pvtz
reference uhf
e_convergence 10
scf_type pk
freeze_core true
}

set ccenergy {
e_convergence 10
r_convergence 10
}

e = energy('ccsd(t)')

print_out('Stephenergy {}'.format(e))

--------------------------------------------------------------------------

    Molecular point group: cs

    Geometry (in Angstrom), charge = 0, multiplicity = 3:

       Center              X                  Y                   Z               Mass
    ------------   -----------------  -----------------  -----------------  -----------------
         O           -1.520512699176    -0.026868967589     0.000000000000    15.994914619570
         H           -0.560397290291    -0.014215429281     0.000000000000     1.007825032230
         H           -1.784195250418     0.896661152266     0.000000000000     1.007825032230
         O            1.668243344141    -0.028733135352     0.000000000000    15.994914619570

  Charge       = 0
  Multiplicity = 3
  Basis Set: AUG-CC-PVTZ
    Blend: AUG-CC-PVTZ

    Orbital Energies [Eh]
    ---------------------

    Alpha Occupied:

       1Ap   -20.734795     2Ap   -20.557846     3Ap    -1.444114
       4Ap    -1.343090     5Ap    -0.734653     1App   -0.734508
       6Ap    -0.712161     7Ap    -0.636834     8Ap    -0.573411
       2App   -0.501557

    Alpha Virtual:

       9Ap     0.034621    10Ap     0.053229    11Ap     0.127571
       3App    0.131482    12Ap     0.148158    13Ap     0.161227
      14Ap     0.183285     4App    0.186141    15Ap     0.211360
      16Ap     0.241925    17Ap     0.271795     5App    0.282430
      18Ap     0.293882     6App    0.323989    19Ap     0.372852
      20Ap     0.392556    21Ap     0.460319    22Ap     0.559073
       7App    0.600068    23Ap     0.608506    24Ap     0.644486
      25Ap     0.667688     8App    0.712761    26Ap     0.713124
       9App    0.734662    10App    0.746277    27Ap     0.765470
      28Ap     0.796956    11App    0.824943    29Ap     0.851697
      30Ap     0.865423    12App    0.882661    31Ap     0.923097
      13App    0.943222    32Ap     0.944041    33Ap     0.956746
      14App    0.983346    34Ap     0.988617    35Ap     1.044069
      36Ap     1.128025    37Ap     1.169176    15App    1.177450
      38Ap     1.195166    16App    1.260776    39Ap     1.271523
      40Ap     1.323157    17App    1.529251    41Ap     1.560266
      18App    1.604210    42Ap     1.689294    43Ap     1.814222
      44Ap     1.825168    19App    1.975695    45Ap     1.975734
      46Ap     1.998115    20App    2.011188    47Ap     2.018407
      21App    2.048022    48Ap     2.061767    22App    2.122316
      49Ap     2.163217    50Ap     2.164621    23App    2.211200
      24App    2.294154    51Ap     2.300798    52Ap     2.327775
      53Ap     2.414326    25App    2.447562    54Ap     2.459059
      26App    2.524755    55Ap     2.536459    56Ap     2.632989
      57Ap     2.672307    27App    2.729498    58Ap     2.751971
      59Ap     2.869051    28App    2.946255    60Ap     2.948739
      61Ap     3.700127    62Ap     3.896946    29App    4.033214
      30App    4.058734    63Ap     4.077032    31App    4.175047
      64Ap     4.210887    65Ap     4.271517    32App    4.310329
      66Ap     4.380353    33App    4.394567    67Ap     4.440366
      34App    4.440825    68Ap     4.573093    69Ap     4.780763
      70Ap     4.961218    35App    5.163061    71Ap     5.175724
      72Ap     5.317865    73Ap     5.382469    36App    5.529036
      74Ap     5.705259    75Ap     6.192401    37App    6.310351
      76Ap     6.310392    38App    6.372737    77Ap     6.375694
      39App    6.519985    78Ap     6.529062    79Ap     6.556795
      80Ap     6.634823    40App    6.724903    81Ap     6.812262
      41App    6.818558    82Ap     6.907642    42App    6.933989
      83Ap     6.965495    84Ap     7.049637    43App    7.150747
      44App    7.275816    45App    7.329577    85Ap     7.332831
      86Ap     7.362894    46App    7.443247    87Ap     7.669920
      88Ap     7.955198    89Ap     7.970600    90Ap     8.813613
      91Ap     9.390918    92Ap    16.607929

    Beta Occupied:

       1Ap   -20.656019     2Ap   -20.557983     3Ap    -1.343685
       4Ap    -1.101665     5Ap    -0.711259     6Ap    -0.579927
       7Ap    -0.541983     1App   -0.501609

    Beta Virtual:

       8Ap     0.034256     9Ap     0.046122     2App    0.047759
      10Ap     0.057655    11Ap     0.144186    12Ap     0.151038
       3App    0.160204    13Ap     0.179703    14Ap     0.210192
      15Ap     0.217908     4App    0.226001    16Ap     0.251528
      17Ap     0.273767     5App    0.282776    18Ap     0.296147
       6App    0.327687    19Ap     0.376668    20Ap     0.403155
      21Ap     0.461060    22Ap     0.561950     7App    0.632364
      23Ap     0.638842    24Ap     0.647553    25Ap     0.670609
      26Ap     0.713857     8App    0.726580     9App    0.735889
      10App    0.747674    27Ap     0.784064    28Ap     0.809310
      29Ap     0.857357    11App    0.866996    30Ap     0.918435
      12App    0.936352    31Ap     0.943642    13App    0.950109
      32Ap     0.953612    33Ap     0.976317    34Ap     1.016564
      14App    1.024848    35Ap     1.048099    36Ap     1.154263
      37Ap     1.177391    15App    1.180676    38Ap     1.219956
      16App    1.271906    39Ap     1.273723    40Ap     1.334023
      17App    1.530084    41Ap     1.566292    18App    1.605827
      42Ap     1.715853    43Ap     1.818937    44Ap     1.832997
      45Ap     2.006095    19App    2.013808    46Ap     2.014050
      20App    2.052648    47Ap     2.066735    21App    2.170113
      22App    2.179506    48Ap     2.179779    49Ap     2.203092
      50Ap     2.226023    23App    2.248875    24App    2.296131
      51Ap     2.316515    52Ap     2.342638    53Ap     2.421957
      25App    2.450047    54Ap     2.459905    26App    2.533285
      55Ap     2.543657    56Ap     2.638994    57Ap     2.683150
      27App    2.730664    58Ap     2.759219    59Ap     2.873666
      28App    2.946933    60Ap     2.951433    61Ap     3.700607
      62Ap     3.899640    29App    4.033418    30App    4.148463
      63Ap     4.189503    64Ap     4.244736    31App    4.255346
      65Ap     4.294018    32App    4.310565    33App    4.394741
      66Ap     4.397359    34App    4.442380    67Ap     4.469078
      68Ap     4.574094    69Ap     4.782161    70Ap     4.963444
      35App    5.163047    71Ap     5.176270    72Ap     5.318060
      73Ap     5.383591    36App    5.529127    74Ap     5.705910
      75Ap     6.192829    37App    6.419316    76Ap     6.419342
      38App    6.448142    77Ap     6.451255    78Ap     6.535946
      39App    6.574932    79Ap     6.605874    80Ap     6.680992
      40App    6.729212    81Ap     6.908699    41App    7.004650
      82Ap     7.005519    42App    7.042491    83Ap     7.071107
      84Ap     7.129978    43App    7.152739    44App    7.276271
      45App    7.330462    85Ap     7.332849    86Ap     7.363457
      46App    7.443678    87Ap     7.671297    88Ap     7.955397
      89Ap     7.970892    90Ap     8.816066    91Ap     9.465445
      92Ap    16.608492

    Final Occupation by Irrep:
             Ap   App
    DOCC [     7,    1 ]
    SOCC [     1,    1 ]

  @UHF Final Energy:  -150.87459464793952

   => Energetics <=

    Nuclear Repulsion Energy =             22.8683525054245784
    One-Electron Energy =                -253.5187974248125045
    Two-Electron Energy =                  79.7758502714484052
    Total Energy =                       -150.8745946479395172

  UHF NO Occupations:
  HONO-2 :    7 Ap 1.9970298
  HONO-1 :    8 Ap 1.0000000
  HONO-0 :    2App 1.0000000
  LUNO+0 :    9 Ap 0.0029702
  LUNO+1 :   10 Ap 0.0017115
  LUNO+2 :   11 Ap 0.0000024
  LUNO+3 :   12 Ap 0.0000018

Computation Completed

Properties will be evaluated at   0.000000,   0.000000,   0.000000 [a0]

Properties computed using the SCF density matrix

  Nuclear Dipole Moment: [e a0]
     X:    -2.1973      Y:     0.8270      Z:     0.0000

  Electronic Dipole Moment: [e a0]
     X:     2.7558      Y:    -0.2130      Z:     0.0000

  Dipole Moment: [e a0]
     X:     0.5585      Y:     0.6140      Z:     0.0000     Total:     0.8300

  Dipole Moment: [D]
     X:     1.4196      Y:     1.5606      Z:     0.0000     Total:     2.1097

*** tstop() called on c4-16.compute.lan at Tue Mar  9 14:46:06 2021
Module time:
	user time   =      68.35 seconds =       1.14 minutes
	system time =       1.51 seconds =       0.03 minutes
	total time  =          7 seconds =       0.12 minutes
Total time:
	user time   =      68.35 seconds =       1.14 minutes
	system time =       1.51 seconds =       0.03 minutes
	total time  =          7 seconds =       0.12 minutes
 MINTS: Wrapper to libmints.
   by Justin Turney

   Calculation information:
      Number of threads:                12
      Number of atoms:                   4
      Number of AO shells:              46
      Number of SO shells:              46
      Number of primitives:             82
      Number of atomic orbitals:       160
      Number of basis functions:       138

      Number of irreps:                  2
      Integral cutoff                 0.00e+00
      Number of functions per irrep: [  92   46 ]

 OEINTS: Overlap, kinetic, potential, dipole, and quadrupole integrals
         stored in file 35.

      Computing two-electron integrals...done
      Computed 22939930 non-zero two-electron integrals.
        Stored in file 33.

*** tstart() called on c4-16.compute.lan
*** at Tue Mar  9 14:46:09 2021

	Wfn Parameters:
	--------------------
	Wavefunction         = CCSD_T
	Number of irreps     = 2
	Number of MOs        = 138
	Number of active MOs = 136
	AO-Basis             = NONE
	Semicanonical        = false
	Reference            = UHF
	Print Level          = 1

	IRREP	# MOs	# FZDC	# DOCC	# SOCC	# VIRT	# FZVR
	-----	-----	------	------	------	------	------
	 Ap	   92	    2	    5	    1	    84	    0
	 App	   46	    0	    1	    1	    44	    0
	Transforming integrals...
	IWL integrals will be deleted.
	(OO|OO)...
	Presorting SO-basis two-electron integrals.
	Sorting File: SO Ints (nn|nn) nbuckets = 1
	Transforming the one-electron integrals and constructing Fock matrices
	Starting AA/AB first half-transformation.
	Sorting AA/AB half-transformed integrals.
	Starting BB first half-transformation.
	Sorting BB half-transformed integrals.
	First half integral transformation complete.
	Starting AA second half-transformation.
	Starting AB second half-transformation.
	Starting BB second half-transformation.
	Two-electron integral transformation complete.
	(OO|OV)...
	Starting AA second half-transformation.
	Starting AB second half-transformation.
	Starting BB second half-transformation.
	Two-electron integral transformation complete.
	(OO|VV)...
	Starting AA second half-transformation.
	Starting AB second half-transformation.
	Starting BB second half-transformation.
	Two-electron integral transformation complete.
	(OV|OO)...
	Starting AA/AB first half-transformation.
	Sorting AA/AB half-transformed integrals.
	Starting BB first half-transformation.
	Sorting BB half-transformed integrals.
	First half integral transformation complete.
	Starting AA second half-transformation.
	Starting AB second half-transformation.
	Starting BB second half-transformation.
	Two-electron integral transformation complete.
	(OV|OV)...
	Starting AA second half-transformation.
	Starting AB second half-transformation.
	Starting BB second half-transformation.
	Two-electron integral transformation complete.
	(OV|VV)...
	Starting AA second half-transformation.
	Starting AB second half-transformation.
	Starting BB second half-transformation.
	Two-electron integral transformation complete.
	(VV|OO)...
	Starting AA/AB first half-transformation.
	Sorting AA/AB half-transformed integrals.
	Starting BB first half-transformation.
	Sorting BB half-transformed integrals.
	First half integral transformation complete.
	Starting AA second half-transformation.
	Starting AB second half-transformation.
	Starting BB second half-transformation.
	Two-electron integral transformation complete.
	(VV|OV)...
	Starting AA second half-transformation.
	Starting AB second half-transformation.
	Starting BB second half-transformation.
	Two-electron integral transformation complete.
	(VV|VV)...
	Starting AA second half-transformation.
	Starting AB second half-transformation.
	Starting BB second half-transformation.
	Two-electron integral transformation complete.
	Frozen core energy     =   -125.83274367290369

	Size of irrep 0 of <AB|CD> integrals:     19.643 (MW) /    157.141 (MB)
	Size of irrep 1 of <AB|CD> integrals:     13.660 (MW) /    109.283 (MB)
	Total:                                    33.303 (MW) /    266.424 (MB)

	Size of irrep 0 of <ab|cd> integrals:     20.794 (MW) /    166.349 (MB)
	Size of irrep 1 of <ab|cd> integrals:     14.631 (MW) /    117.045 (MB)
	Total:                                    35.424 (MW) /    283.394 (MB)

	Size of irrep 0 of <Ab|Cd> integrals:     83.174 (MW) /    665.395 (MB)
	Size of irrep 1 of <Ab|Cd> integrals:     56.550 (MW) /    452.403 (MB)
	Total:                                   139.725 (MW) /   1117.798 (MB)

	Size of irrep 0 of <IA|BC> integrals:      5.323 (MW) /     42.586 (MB)
	Size of irrep 1 of <IA|BC> integrals:      3.193 (MW) /     25.547 (MB)
	Total:                                     8.517 (MW) /     68.133 (MB)

	Size of irrep 0 of <ia|bc> integrals:      4.348 (MW) /     34.780 (MB)
	Size of irrep 1 of <ia|bc> integrals:      2.372 (MW) /     18.972 (MB)
	Total:                                     6.719 (MW) /     53.752 (MB)

	Size of irrep 0 of <Ia|Bc> integrals:      5.472 (MW) /     43.776 (MB)
	Size of irrep 1 of <Ia|Bc> integrals:      3.309 (MW) /     26.470 (MB)
	Total:                                     8.781 (MW) /     70.246 (MB)

	Size of irrep 0 of <iA|bC> integrals:      4.232 (MW) /     33.853 (MB)
	Size of irrep 1 of <iA|bC> integrals:      2.286 (MW) /     18.289 (MB)
	Total:                                     6.518 (MW) /     52.142 (MB)

	Size of irrep 0 of tIjAb amplitudes:       0.292 (MW) /      2.335 (MB)
	Size of irrep 1 of tIjAb amplitudes:       0.120 (MW) /      0.963 (MB)
	Total:                                     0.412 (MW) /      3.297 (MB)

	Nuclear Rep. energy          =     22.86835250542458
	SCF energy                   =   -150.87459464793952
	One-electron energy          =    -84.35995111981313
	Two-electron (AA) energy     =     10.12594233915905
	Two-electron (BB) energy     =      5.38868228312805
	Two-electron (AB) energy     =     20.93512301706371
	Two-electron energy          =     36.44974763935082
	Reference energy             =   -150.87459464794142

*** tstop() called on c4-16.compute.lan at Tue Mar  9 14:46:46 2021
Module time:
	user time   =     127.42 seconds =       2.12 minutes
	system time =      18.23 seconds =       0.30 minutes
	total time  =         37 seconds =       0.62 minutes
Total time:
	user time   =     202.50 seconds =       3.38 minutes
	system time =      20.38 seconds =       0.34 minutes
	total time  =         47 seconds =       0.78 minutes
            **************************
            *                        *
            *        CCENERGY        *
            *                        *
            **************************

    Nuclear Rep. energy (wfn)     =   22.868352505424578
    SCF energy          (wfn)     = -150.874594647939517
    Reference energy    (file100) = -150.874594647941421

    Input parameters:
    -----------------
    Wave function   =     CCSD_T
    Reference wfn   =     UHF
    Brueckner       =     No
    Memory (Mbytes) =     4000.0
    Maxiter         =     50
    R_Convergence   =     1.0e-10
    E_Convergence   =     1.0e-10
    Restart         =     Yes
    DIIS            =     Yes
    AO Basis        =     NONE
    ABCD            =     NEW
    Cache Level     =     2
    Cache Type      =     LRU
    Print Level     =     1
    Num. of threads =     12
    # Amps to Print =     10
    Print MP2 Amps? =     No
    Analyze T2 Amps =     No
    Print Pair Ener =     No
    Local CC        =     No
    SCS-MP2         =     False
    SCSN-MP2        =     False
    SCS-CCSD        =     False

MP2 correlation energy -0.4163767996075539
                Solving CC Amplitude Equations
                ------------------------------
  Iter             Energy              RMS        T1Diag      D1Diag    New D1Diag    D2Diag
  ----     ---------------------    ---------   ----------  ----------  ----------   --------
     0        -0.416376799607554    0.000e+00    0.000000    0.000000    0.000000    0.000000
     1        -0.427165836321506    5.670e-02    0.010512    0.000000    0.000000    0.000000
     2        -0.435235388561024    1.683e-02    0.011003    0.000000    0.000000    0.000000
     3        -0.437342463990100    8.543e-03    0.012865    0.000000    0.000000    0.000000
     4        -0.437217588699001    2.530e-03    0.013232    0.000000    0.000000    0.000000
     5        -0.437202581047806    1.324e-03    0.013388    0.000000    0.000000    0.000000
     6        -0.437229927140121    5.151e-04    0.013411    0.000000    0.000000    0.000000
     7        -0.437234733756611    2.663e-04    0.013406    0.000000    0.000000    0.000000
     8        -0.437235287157531    9.626e-05    0.013401    0.000000    0.000000    0.000000
     9        -0.437236685644166    6.918e-05    0.013402    0.000000    0.000000    0.000000
    10        -0.437235143814543    5.804e-05    0.013403    0.000000    0.000000    0.000000
    11        -0.437235266433019    5.486e-05    0.013404    0.000000    0.000000    0.000000
    12        -0.437235070153179    5.317e-05    0.013406    0.000000    0.000000    0.000000
    13        -0.437235048144192    5.222e-05    0.013408    0.000000    0.000000    0.000000
    14        -0.437235967324977    5.092e-05    0.013419    0.000000    0.000000    0.000000
    15        -0.437236307507577    4.646e-05    0.013465    0.000000    0.000000    0.000000
    16        -0.437236067953524    3.351e-05    0.013586    0.000000    0.000000    0.000000
    17        -0.437235780994490    1.702e-05    0.013658    0.000000    0.000000    0.000000
    18        -0.437235636010595    7.986e-06    0.013679    0.000000    0.000000    0.000000
    19        -0.437235879858101    3.513e-06    0.013685    0.000000    0.000000    0.000000
    20        -0.437235998306972    1.549e-06    0.013686    0.000000    0.000000    0.000000
    21        -0.437236004683394    6.175e-07    0.013686    0.000000    0.000000    0.000000
    22        -0.437236005523133    2.784e-07    0.013686    0.000000    0.000000    0.000000
    23        -0.437236004847713    1.392e-07    0.013686    0.000000    0.000000    0.000000
    24        -0.437236004067904    5.303e-08    0.013686    0.000000    0.000000    0.000000
    25        -0.437236004954797    2.628e-08    0.013686    0.000000    0.000000    0.000000
    26        -0.437236005382585    1.830e-08    0.013686    0.000000    0.000000    0.000000
    27        -0.437236005507773    1.662e-08    0.013686    0.000000    0.000000    0.000000
    28        -0.437236005486505    1.602e-08    0.013686    0.000000    0.000000    0.000000
    29        -0.437236005396372    1.561e-08    0.013686    0.000000    0.000000    0.000000
    30        -0.437236005216871    1.510e-08    0.013686    0.000000    0.000000    0.000000
    31        -0.437236005251999    1.357e-08    0.013686    0.000000    0.000000    0.000000
    32        -0.437236005490734    8.610e-09    0.013686    0.000000    0.000000    0.000000
    33        -0.437236005576383    3.987e-09    0.013686    0.000000    0.000000    0.000000
    34        -0.437236005629850    1.707e-09    0.013686    0.000000    0.000000    0.000000
    35        -0.437236005635994    6.688e-10    0.013686    0.000000    0.000000    0.000000
    36        -0.437236005635033    2.651e-10    0.013686    0.000000    0.000000    0.000000

      * MP2 total energy                      = -151.290971447548969
      * CCSD total energy                     = -151.311830653575697
      * CCSD(T) total energy                     = -151.324161434346962
*** Psi4 exiting successfully. Buy a developer a beer!
