                               Psi4 1.3.2 release

  ==> Input File <==

--------------------------------------------------------------------------
memory 4 GB

molecule  {
0 1
O    0.000000000000    0.000000000000   -0.065899864594
H    0.000000000000   -0.758666341000    0.522939336647
H   -0.000000000000    0.758666341000    0.522939336647
}
set {
basis aug-cc-pvtz
reference uhf
e_convergence 10
scf_type pk
freeze_core true
}

set ccenergy {
e_convergence 10
r_convergence 10
}

e = energy('ccsd(t)')

print_out('Stephenergy {}'.format(e))

--------------------------------------------------------------------------

    Molecular point group: c2v

    Geometry (in Angstrom), charge = 0, multiplicity = 1:

       Center              X                  Y                   Z               Mass
    ------------   -----------------  -----------------  -----------------  -----------------
         O            0.000000000000     0.000000000000    -0.065899864594    15.994914619570
         H            0.000000000000    -0.758666341000     0.522939336647     1.007825032230
         H           -0.000000000000     0.758666341000     0.522939336647     1.007825032230

  Charge       = 0
  Multiplicity = 1
  Basis Set: AUG-CC-PVTZ
    Blend: AUG-CC-PVTZ

    Orbital Energies [Eh]
    ---------------------

    Alpha Occupied:

       1A1   -20.567810     2A1    -1.352094     1B2    -0.715845
       3A1    -0.584636     1B1    -0.510148

    Alpha Virtual:

       4A1     0.029395     2B2     0.047681     5A1     0.135929
       2B1     0.158692     6A1     0.175139     3B2     0.183017
       4B2     0.227296     7A1     0.244930     1A2     0.265303
       3B1     0.300319     8A1     0.310328     5B2     0.365775
       9A1     0.437535     6B2     0.466224     7B2     0.599405
      10A1     0.658299    11A1     0.708186     2A2     0.722427
       4B1     0.731641    12A1     0.830581     5B1     0.846198
      13A1     0.891902     8B2     0.912672     6B1     0.918490
       3A2     0.922356     9B2     0.930662    14A1     0.961991
      15A1     1.021271    10B2     1.043477     7B1     1.082738
      11B2     1.108839     4A2     1.176134    16A1     1.181748
      12B2     1.260607     5A2     1.510484    17A1     1.536700
       8B1     1.583788    18A1     1.804424    13B2     1.818871
      14B2     1.985860    19A1     2.117696     9B1     2.262516
       6A2     2.315935    20A1     2.326235    21A1     2.418286
      10B1     2.420340    15B2     2.442762    22A1     2.478996
      16B2     2.677224    11B1     2.698022    23A1     2.770976
      17B2     2.817917     7A2     2.884262    18B2     3.652842
      24A1     3.743946     8A2     4.017153    12B1     4.083790
      25A1     4.167112    19B2     4.246884    13B1     4.290401
      26A1     4.375940     9A2     4.377555    14B1     4.404962
      20B2     4.516259    27A1     4.724287    21B2     4.843024
      22B2     5.146541    10A2     5.150608    23B2     5.253610
      28A1     5.325668    15B1     5.522055    29A1     5.666122
      30A1     6.175911    24B2     6.514005    16B1     6.709106
      31A1     6.895935    17B1     7.132444    18B1     7.251664
      25B2     7.305151    11A2     7.312510    32A1     7.326134
      12A2     7.355141    33A1     7.533630    34A1     7.900823
      26B2     7.922331    27B2     8.801548    35A1    15.736582

    Beta Occupied:

       1A1   -20.567810     2A1    -1.352094     1B2    -0.715845
       3A1    -0.584636     1B1    -0.510148

    Beta Virtual:

       4A1     0.029395     2B2     0.047681     5A1     0.135929
       2B1     0.158692     6A1     0.175139     3B2     0.183017
       4B2     0.227296     7A1     0.244930     1A2     0.265303
       3B1     0.300319     8A1     0.310328     5B2     0.365775
       9A1     0.437535     6B2     0.466224     7B2     0.599405
      10A1     0.658299    11A1     0.708186     2A2     0.722427
       4B1     0.731641    12A1     0.830581     5B1     0.846198
      13A1     0.891902     8B2     0.912672     6B1     0.918490
       3A2     0.922356     9B2     0.930662    14A1     0.961991
      15A1     1.021271    10B2     1.043477     7B1     1.082738
      11B2     1.108839     4A2     1.176134    16A1     1.181748
      12B2     1.260607     5A2     1.510484    17A1     1.536700
       8B1     1.583788    18A1     1.804424    13B2     1.818871
      14B2     1.985860    19A1     2.117696     9B1     2.262516
       6A2     2.315935    20A1     2.326235    21A1     2.418286
      10B1     2.420340    15B2     2.442762    22A1     2.478996
      16B2     2.677224    11B1     2.698022    23A1     2.770976
      17B2     2.817917     7A2     2.884262    18B2     3.652842
      24A1     3.743946     8A2     4.017153    12B1     4.083790
      25A1     4.167112    19B2     4.246884    13B1     4.290401
      26A1     4.375940     9A2     4.377555    14B1     4.404962
      20B2     4.516259    27A1     4.724287    21B2     4.843024
      22B2     5.146541    10A2     5.150608    23B2     5.253610
      28A1     5.325668    15B1     5.522055    29A1     5.666122
      30A1     6.175911    24B2     6.514005    16B1     6.709106
      31A1     6.895935    17B1     7.132444    18B1     7.251664
      25B2     7.305151    11A2     7.312510    32A1     7.326134
      12A2     7.355141    33A1     7.533630    34A1     7.900823
      26B2     7.922331    27B2     8.801548    35A1    15.736582

    Final Occupation by Irrep:
             A1    A2    B1    B2
    DOCC [     3,    0,    1,    1 ]
    SOCC [     0,    0,    0,    0 ]

  @UHF Final Energy:   -76.06037924789395

   => Energetics <=

    Nuclear Repulsion Energy =              9.1649977840958243
    One-Electron Energy =                -122.9896890489506234
    Two-Electron Energy =                  37.7643120169608579
    Total Energy =                        -76.0603792478939482

  UHF NO Occupations:
  HONO-2 :    1 A1 2.0000000
  HONO-1 :    2 A1 2.0000000
  HONO-0 :    3 A1 2.0000000
  LUNO+0 :    2 B1 0.0000000
  LUNO+1 :    4 A1 0.0000000
  LUNO+2 :    5 A1 0.0000000
  LUNO+3 :    2 B2 0.0000000

Computation Completed

Properties will be evaluated at   0.000000,   0.000000,   0.000000 [a0]

Properties computed using the SCF density matrix

  Nuclear Dipole Moment: [e a0]
     X:     0.0000      Y:     0.0000      Z:     0.9802

  Electronic Dipole Moment: [e a0]
     X:     0.0000      Y:     0.0000      Z:    -0.1982

  Dipole Moment: [e a0]
     X:     0.0000      Y:     0.0000      Z:     0.7820     Total:     0.7820

  Dipole Moment: [D]
     X:     0.0000      Y:     0.0000      Z:     1.9876     Total:     1.9876

*** tstop() called on c2-24.compute.lan at Mon Mar  8 09:47:21 2021
Module time:
	user time   =      13.91 seconds =       0.23 minutes
	system time =       0.66 seconds =       0.01 minutes
	total time  =          1 seconds =       0.02 minutes
Total time:
	user time   =      13.91 seconds =       0.23 minutes
	system time =       0.66 seconds =       0.01 minutes
	total time  =          1 seconds =       0.02 minutes
 MINTS: Wrapper to libmints.
   by Justin Turney

   Calculation information:
      Number of threads:                12
      Number of atoms:                   3
      Number of AO shells:              32
      Number of SO shells:              23
      Number of primitives:             52
      Number of atomic orbitals:       105
      Number of basis functions:        92

      Number of irreps:                  4
      Integral cutoff                 0.00e+00
      Number of functions per irrep: [  35   12   18   27 ]

 OEINTS: Overlap, kinetic, potential, dipole, and quadrupole integrals
         stored in file 35.

      Computing two-electron integrals...done
      Computed 2242547 non-zero two-electron integrals.
        Stored in file 33.

*** tstart() called on c2-24.compute.lan
*** at Mon Mar  8 09:47:23 2021

	Wfn Parameters:
	--------------------
	Wavefunction         = CCSD_T
	Number of irreps     = 4
	Number of MOs        = 92
	Number of active MOs = 91
	AO-Basis             = NONE
	Semicanonical        = false
	Reference            = UHF
	Print Level          = 1

	IRREP	# MOs	# FZDC	# DOCC	# SOCC	# VIRT	# FZVR
	-----	-----	------	------	------	------	------
	 A1	   35	    1	    2	    0	    32	    0
	 A2	   12	    0	    0	    0	    12	    0
	 B1	   18	    0	    1	    0	    17	    0
	 B2	   27	    0	    1	    0	    26	    0
	Transforming integrals...
	IWL integrals will be deleted.
	(OO|OO)...
	Presorting SO-basis two-electron integrals.
	Sorting File: SO Ints (nn|nn) nbuckets = 1
	Transforming the one-electron integrals and constructing Fock matrices
	Starting AA/AB first half-transformation.
	Sorting AA/AB half-transformed integrals.
	Starting BB first half-transformation.
	Sorting BB half-transformed integrals.
	First half integral transformation complete.
	Starting AA second half-transformation.
	Starting AB second half-transformation.
	Starting BB second half-transformation.
	Two-electron integral transformation complete.
	(OO|OV)...
	Starting AA second half-transformation.
	Starting AB second half-transformation.
	Starting BB second half-transformation.
	Two-electron integral transformation complete.
	(OO|VV)...
	Starting AA second half-transformation.
	Starting AB second half-transformation.
	Starting BB second half-transformation.
	Two-electron integral transformation complete.
	(OV|OO)...
	Starting AA/AB first half-transformation.
	Sorting AA/AB half-transformed integrals.
	Starting BB first half-transformation.
	Sorting BB half-transformed integrals.
	First half integral transformation complete.
	Starting AA second half-transformation.
	Starting AB second half-transformation.
	Starting BB second half-transformation.
	Two-electron integral transformation complete.
	(OV|OV)...
	Starting AA second half-transformation.
	Starting AB second half-transformation.
	Starting BB second half-transformation.
	Two-electron integral transformation complete.
	(OV|VV)...
	Starting AA second half-transformation.
	Starting AB second half-transformation.
	Starting BB second half-transformation.
	Two-electron integral transformation complete.
	(VV|OO)...
	Starting AA/AB first half-transformation.
	Sorting AA/AB half-transformed integrals.
	Starting BB first half-transformation.
	Sorting BB half-transformed integrals.
	First half integral transformation complete.
	Starting AA second half-transformation.
	Starting AB second half-transformation.
	Starting BB second half-transformation.
	Two-electron integral transformation complete.
	(VV|OV)...
	Starting AA second half-transformation.
	Starting AB second half-transformation.
	Starting BB second half-transformation.
	Two-electron integral transformation complete.
	(VV|VV)...
	Starting AA second half-transformation.
	Starting AB second half-transformation.
	Starting BB second half-transformation.
	Two-electron integral transformation complete.
	Frozen core energy     =    -61.30951675871481

	Size of irrep 0 of <AB|CD> integrals:      1.047 (MW) /      8.372 (MB)
	Size of irrep 1 of <AB|CD> integrals:      0.682 (MW) /      5.458 (MB)
	Size of irrep 2 of <AB|CD> integrals:      0.733 (MW) /      5.862 (MB)
	Size of irrep 3 of <AB|CD> integrals:      1.073 (MW) /      8.586 (MB)
	Total:                                     3.535 (MW) /     28.279 (MB)

	Size of irrep 0 of <ab|cd> integrals:      1.047 (MW) /      8.372 (MB)
	Size of irrep 1 of <ab|cd> integrals:      0.682 (MW) /      5.458 (MB)
	Size of irrep 2 of <ab|cd> integrals:      0.733 (MW) /      5.862 (MB)
	Size of irrep 3 of <ab|cd> integrals:      1.073 (MW) /      8.586 (MB)
	Total:                                     3.535 (MW) /     28.279 (MB)

	Size of irrep 0 of <Ab|Cd> integrals:      4.550 (MW) /     36.398 (MB)
	Size of irrep 1 of <Ab|Cd> integrals:      2.729 (MW) /     21.833 (MB)
	Size of irrep 2 of <Ab|Cd> integrals:      2.931 (MW) /     23.448 (MB)
	Size of irrep 3 of <Ab|Cd> integrals:      4.293 (MW) /     34.345 (MB)
	Total:                                    14.503 (MW) /    116.023 (MB)

	Size of irrep 0 of <IA|BC> integrals:      0.228 (MW) /      1.826 (MB)
	Size of irrep 1 of <IA|BC> integrals:      0.111 (MW) /      0.885 (MB)
	Size of irrep 2 of <IA|BC> integrals:      0.134 (MW) /      1.068 (MB)
	Size of irrep 3 of <IA|BC> integrals:      0.199 (MW) /      1.591 (MB)
	Total:                                     0.671 (MW) /      5.371 (MB)

	Size of irrep 0 of <ia|bc> integrals:      0.228 (MW) /      1.826 (MB)
	Size of irrep 1 of <ia|bc> integrals:      0.111 (MW) /      0.885 (MB)
	Size of irrep 2 of <ia|bc> integrals:      0.134 (MW) /      1.068 (MB)
	Size of irrep 3 of <ia|bc> integrals:      0.199 (MW) /      1.591 (MB)
	Total:                                     0.671 (MW) /      5.371 (MB)

	Size of irrep 0 of <Ia|Bc> integrals:      0.228 (MW) /      1.826 (MB)
	Size of irrep 1 of <Ia|Bc> integrals:      0.111 (MW) /      0.885 (MB)
	Size of irrep 2 of <Ia|Bc> integrals:      0.134 (MW) /      1.068 (MB)
	Size of irrep 3 of <Ia|Bc> integrals:      0.199 (MW) /      1.591 (MB)
	Total:                                     0.671 (MW) /      5.371 (MB)

	Size of irrep 0 of <iA|bC> integrals:      0.228 (MW) /      1.826 (MB)
	Size of irrep 1 of <iA|bC> integrals:      0.111 (MW) /      0.885 (MB)
	Size of irrep 2 of <iA|bC> integrals:      0.134 (MW) /      1.068 (MB)
	Size of irrep 3 of <iA|bC> integrals:      0.199 (MW) /      1.591 (MB)
	Total:                                     0.671 (MW) /      5.371 (MB)

	Size of irrep 0 of tIjAb amplitudes:       0.013 (MW) /      0.102 (MB)
	Size of irrep 1 of tIjAb amplitudes:       0.003 (MW) /      0.026 (MB)
	Size of irrep 2 of tIjAb amplitudes:       0.007 (MW) /      0.055 (MB)
	Size of irrep 3 of tIjAb amplitudes:       0.008 (MW) /      0.066 (MB)
	Total:                                     0.031 (MW) /      0.250 (MB)

	Nuclear Rep. energy          =      9.16499778409582
	SCF energy                   =    -76.06037924789395
	One-electron energy          =    -41.50627517346557
	Two-electron (AA) energy     =      3.41932236044432
	Two-electron (BB) energy     =      3.41932236044432
	Two-electron (AB) energy     =     10.75177017930193
	Two-electron energy          =     17.59041490019057
	Reference energy             =    -76.06037924789399

*** tstop() called on c2-24.compute.lan at Mon Mar  8 09:47:34 2021
Module time:
	user time   =      82.35 seconds =       1.37 minutes
	system time =       4.80 seconds =       0.08 minutes
	total time  =         11 seconds =       0.18 minutes
Total time:
	user time   =     100.72 seconds =       1.68 minutes
	system time =       5.74 seconds =       0.10 minutes
	total time  =         14 seconds =       0.23 minutes
            **************************
            *                        *
            *        CCENERGY        *
            *                        *
            **************************

    Nuclear Rep. energy (wfn)     =    9.164997784095824
    SCF energy          (wfn)     =  -76.060379247893948
    Reference energy    (file100) =  -76.060379247893991

    Input parameters:
    -----------------
    Wave function   =     CCSD_T
    Reference wfn   =     UHF
    Brueckner       =     No
    Memory (Mbytes) =     4000.0
    Maxiter         =     50
    R_Convergence   =     1.0e-10
    E_Convergence   =     1.0e-10
    Restart         =     Yes
    DIIS            =     Yes
    AO Basis        =     NONE
    ABCD            =     NEW
    Cache Level     =     2
    Cache Type      =     LRU
    Print Level     =     1
    Num. of threads =     12
    # Amps to Print =     10
    Print MP2 Amps? =     No
    Analyze T2 Amps =     No
    Print Pair Ener =     No
    Local CC        =     No
    SCS-MP2         =     False
    SCSN-MP2        =     False
    SCS-CCSD        =     False

MP2 correlation energy -0.2686101801925943
                Solving CC Amplitude Equations
                ------------------------------
  Iter             Energy              RMS        T1Diag      D1Diag    New D1Diag    D2Diag
  ----     ---------------------    ---------   ----------  ----------  ----------   --------
     0        -0.268610180192594    0.000e+00    0.000000    0.000000    0.000000    0.000000
     1        -0.267127974849256    4.761e-02    0.012084    0.000000    0.000000    0.000000
     2        -0.272191558708191    1.310e-02    0.011860    0.000000    0.000000    0.000000
     3        -0.273407439895410    6.158e-03    0.013709    0.000000    0.000000    0.000000
     4        -0.273303026372882    1.239e-03    0.014031    0.000000    0.000000    0.000000
     5        -0.273286710117616    4.565e-04    0.014163    0.000000    0.000000    0.000000
     6        -0.273287592516946    1.137e-04    0.014193    0.000000    0.000000    0.000000
     7        -0.273286380440712    3.847e-05    0.014198    0.000000    0.000000    0.000000
     8        -0.273286420985392    1.052e-05    0.014200    0.000000    0.000000    0.000000
     9        -0.273286468329250    3.239e-06    0.014201    0.000000    0.000000    0.000000
    10        -0.273286348592774    1.309e-06    0.014201    0.000000    0.000000    0.000000
    11        -0.273286366206028    4.511e-07    0.014201    0.000000    0.000000    0.000000
    12        -0.273286361283266    1.684e-07    0.014201    0.000000    0.000000    0.000000
    13        -0.273286363043318    4.964e-08    0.014201    0.000000    0.000000    0.000000
    14        -0.273286364232593    1.319e-08    0.014201    0.000000    0.000000    0.000000
    15        -0.273286364281524    4.032e-09    0.014201    0.000000    0.000000    0.000000
    16        -0.273286364282506    1.233e-09    0.014201    0.000000    0.000000    0.000000
    17        -0.273286364290893    4.238e-10    0.014201    0.000000    0.000000    0.000000
    18        -0.273286364287791    1.096e-10    0.014201    0.000000    0.000000    0.000000
    19        -0.273286364287394    3.300e-11    0.014201    0.000000    0.000000    0.000000

    Iterations converged.

    Largest TIA Amplitudes:
              2  44        -0.0150838498
              2  45        -0.0130122990
              1   1         0.0085180786
              1   4        -0.0078151079
              3  73         0.0054299831
              2  54         0.0042751786
              3  69         0.0037862677
              2  47        -0.0036782380
              3  80         0.0035933486
              1  23         0.0033928649

    Largest Tia Amplitudes:
              2  44        -0.0150838498
              2  45        -0.0130122990
              1   1         0.0085180786
              1   4        -0.0078151079
              3  73         0.0054299831
              2  54         0.0042751786
              3  69         0.0037862677
              2  47        -0.0036782380
              3  80         0.0035933486
              1  23         0.0033928649

    Largest TIJAB Amplitudes:
      2   1  46   7        -0.0095641883
      3   1  66   6        -0.0093811329

      * MP2 total energy                      =  -76.328989428086587
      * CCSD total energy                     =  -76.333665612181392
      * CCSD(T) total energy                     =  -76.342322644654843
*** Psi4 exiting successfully. Buy a developer a beer!
