                               Psi4 1.3.2 release

  ==> Input File <==

--------------------------------------------------------------------------
memory 4 GB

molecule  {
0 3
O   -1.525181730557   -0.028684315051    0.000000000000
H   -0.561669216428   -0.013035044368    0.000000000000
H   -1.779729798940    0.897958697895    0.000000000000
O    1.672711154393   -0.027073920041    0.000000000000
}
set {
basis aug-cc-pvtz
reference uhf
e_convergence 10
scf_type pk
freeze_core true
}

set ccenergy {
e_convergence 10
r_convergence 10
}

e = energy('ccsd(t)')

print_out('Stephenergy {}'.format(e))

--------------------------------------------------------------------------

    Molecular point group: cs

    Geometry (in Angstrom), charge = 0, multiplicity = 3:

       Center              X                  Y                   Z               Mass
    ------------   -----------------  -----------------  -----------------  -----------------
         O           -1.525181730557    -0.028684315051     0.000000000000    15.994914619570
         H           -0.561669216428    -0.013035044368     0.000000000000     1.007825032230
         H           -1.779729798940     0.897958697895     0.000000000000     1.007825032230
         O            1.672711154393    -0.027073920041     0.000000000000    15.994914619570

  Charge       = 0
  Multiplicity = 3
  Basis Set: AUG-CC-PVTZ
    Blend: AUG-CC-PVTZ

    Orbital Energies [Eh]
    ---------------------

    Alpha Occupied:

       1Ap   -20.734834     2Ap   -20.558568     3Ap    -1.444127
       4Ap    -1.342648     5Ap    -0.734676     1App   -0.734534
       6Ap    -0.709713     7Ap    -0.636833     8Ap    -0.574498
       2App   -0.501649

    Alpha Virtual:

       9Ap     0.034587    10Ap     0.053258    11Ap     0.127576
       3App    0.131537    12Ap     0.148047    13Ap     0.161206
      14Ap     0.183405     4App    0.186147    15Ap     0.211304
      16Ap     0.241415    17Ap     0.271972     5App    0.282383
      18Ap     0.293132     6App    0.323317    19Ap     0.371796
      20Ap     0.392385    21Ap     0.460070    22Ap     0.558770
       7App    0.600100    23Ap     0.608580    24Ap     0.644160
      25Ap     0.668337     8App    0.711943    26Ap     0.712225
       9App    0.734691    10App    0.747131    27Ap     0.765444
      28Ap     0.796540    11App    0.824691    29Ap     0.851299
      30Ap     0.865288    12App    0.882745    31Ap     0.922694
      13App    0.942201    32Ap     0.943716    33Ap     0.956562
      14App    0.983649    34Ap     0.986436    35Ap     1.043334
      36Ap     1.127717    37Ap     1.168705    15App    1.177815
      38Ap     1.193498    16App    1.257637    39Ap     1.272371
      40Ap     1.321997    17App    1.528382    41Ap     1.555689
      18App    1.600753    42Ap     1.687598    43Ap     1.817597
      44Ap     1.824844    19App    1.975666    45Ap     1.975707
      46Ap     1.997119    20App    2.011108    47Ap     2.017906
      21App    2.047657    48Ap     2.060075    22App    2.121591
      49Ap     2.162948    50Ap     2.164431    23App    2.209479
      24App    2.294190    51Ap     2.298553    52Ap     2.329107
      53Ap     2.413611    25App    2.447728    54Ap     2.461392
      26App    2.522004    55Ap     2.534487    56Ap     2.628569
      57Ap     2.666676    27App    2.728992    58Ap     2.750328
      59Ap     2.866095    60Ap     2.943152    28App    2.946107
      61Ap     3.698890    62Ap     3.890711    29App    4.034580
      30App    4.058141    63Ap     4.076425    31App    4.171313
      64Ap     4.200882    65Ap     4.272751    32App    4.300521
      66Ap     4.376311    33App    4.393223    67Ap     4.437174
      34App    4.439736    68Ap     4.575697    69Ap     4.782670
      70Ap     4.959600    35App    5.155445    71Ap     5.179421
      72Ap     5.308030    73Ap     5.372767    36App    5.526058
      74Ap     5.691558    75Ap     6.196032    37App    6.310329
      76Ap     6.310372    38App    6.372428    77Ap     6.375156
      39App    6.518449    78Ap     6.526654    79Ap     6.554829
      80Ap     6.632812    40App    6.724174    81Ap     6.812334
      41App    6.818406    82Ap     6.911982    42App    6.933391
      83Ap     6.966209    84Ap     7.049184    43App    7.147017
      44App    7.275061    85Ap     7.325131    45App    7.326339
      86Ap     7.358444    46App    7.441008    87Ap     7.658509
      88Ap     7.946915    89Ap     7.965270    90Ap     8.809452
      91Ap     9.376048    92Ap    16.522722

    Beta Occupied:

       1Ap   -20.656055     2Ap   -20.558705     3Ap    -1.343238
       4Ap    -1.101671     5Ap    -0.708766     6Ap    -0.580923
       7Ap    -0.542106     1App   -0.501704

    Beta Virtual:

       8Ap     0.034223     9Ap     0.046082     2App    0.047703
      10Ap     0.057688    11Ap     0.144164    12Ap     0.150984
       3App    0.160396    13Ap     0.179872    14Ap     0.210202
      15Ap     0.217742     4App    0.225939    16Ap     0.251032
      17Ap     0.273958     5App    0.282720    18Ap     0.295397
       6App    0.326938    19Ap     0.375569    20Ap     0.402922
      21Ap     0.460782    22Ap     0.561659     7App    0.632419
      23Ap     0.638901    24Ap     0.647238    25Ap     0.671331
      26Ap     0.712924     8App    0.725725     9App    0.735832
      10App    0.748561    27Ap     0.783951    28Ap     0.808753
      29Ap     0.857395    11App    0.867253    30Ap     0.918086
      12App    0.935484    31Ap     0.943436    13App    0.949706
      32Ap     0.953740    33Ap     0.974313    34Ap     1.015583
      14App    1.024992    35Ap     1.047225    36Ap     1.152716
      37Ap     1.176946    15App    1.181076    38Ap     1.219732
      16App    1.268757    39Ap     1.274430    40Ap     1.332871
      17App    1.529227    41Ap     1.561529    18App    1.602338
      42Ap     1.714900    43Ap     1.822609    44Ap     1.831804
      45Ap     2.004800    19App    2.013775    46Ap     2.013993
      20App    2.052302    47Ap     2.065205    21App    2.169194
      22App    2.179468    48Ap     2.179715    49Ap     2.203066
      50Ap     2.225263    23App    2.247376    24App    2.296070
      51Ap     2.315199    52Ap     2.343099    53Ap     2.421200
      25App    2.450198    54Ap     2.462224    26App    2.530615
      55Ap     2.541865    56Ap     2.634650    57Ap     2.677862
      27App    2.730110    58Ap     2.756781    59Ap     2.870778
      60Ap     2.945857    28App    2.946798    61Ap     3.699335
      62Ap     3.893474    29App    4.034785    30App    4.145272
      63Ap     4.181371    64Ap     4.243096    31App    4.254109
      65Ap     4.294509    32App    4.300856    66Ap     4.391503
      33App    4.393411    34App    4.441296    67Ap     4.467665
      68Ap     4.576638    69Ap     4.784095    70Ap     4.961845
      35App    5.155430    71Ap     5.179938    72Ap     5.308248
      73Ap     5.373791    36App    5.526138    74Ap     5.692189
      75Ap     6.196497    37App    6.419291    76Ap     6.419317
      38App    6.447860    77Ap     6.450688    78Ap     6.533241
      39App    6.573445    79Ap     6.604292    80Ap     6.679019
      40App    6.728402    81Ap     6.913938    41App    7.004542
      82Ap     7.005481    42App    7.041580    83Ap     7.071035
      84Ap     7.129569    43App    7.149363    44App    7.275517
      85Ap     7.325251    45App    7.327179    86Ap     7.358923
      46App    7.441449    87Ap     7.659861    88Ap     7.947255
      89Ap     7.965429    90Ap     8.811914    91Ap     9.450629
      92Ap    16.523283

    Final Occupation by Irrep:
             Ap   App
    DOCC [     7,    1 ]
    SOCC [     1,    1 ]

  @UHF Final Energy:  -150.87441825596969

   => Energetics <=

    Nuclear Repulsion Energy =             22.8160029263882933
    One-Electron Energy =                -253.4155956344679623
    Two-Electron Energy =                  79.7251744521099823
    Total Energy =                       -150.8744182559697151

  UHF NO Occupations:
  HONO-2 :    7 Ap 1.9970296
  HONO-1 :    8 Ap 1.0000000
  HONO-0 :    2App 1.0000000
  LUNO+0 :    9 Ap 0.0029704
  LUNO+1 :   10 Ap 0.0017139
  LUNO+2 :   11 Ap 0.0000024
  LUNO+3 :   12 Ap 0.0000019

Computation Completed

Properties will be evaluated at   0.000000,   0.000000,   0.000000 [a0]

Properties computed using the SCF density matrix

  Nuclear Dipole Moment: [e a0]
     X:    -2.1943      Y:     0.8293      Z:     0.0000

  Electronic Dipole Moment: [e a0]
     X:     2.7591      Y:    -0.2132      Z:     0.0000

  Dipole Moment: [e a0]
     X:     0.5648      Y:     0.6162      Z:     0.0000     Total:     0.8358

  Dipole Moment: [D]
     X:     1.4356      Y:     1.5661      Z:     0.0000     Total:     2.1245

*** tstop() called on c1-11.compute.lan at Tue Mar  9 14:51:35 2021
Module time:
	user time   =      65.05 seconds =       1.08 minutes
	system time =       3.30 seconds =       0.06 minutes
	total time  =          7 seconds =       0.12 minutes
Total time:
	user time   =      65.05 seconds =       1.08 minutes
	system time =       3.30 seconds =       0.06 minutes
	total time  =          7 seconds =       0.12 minutes
 MINTS: Wrapper to libmints.
   by Justin Turney

   Calculation information:
      Number of threads:                12
      Number of atoms:                   4
      Number of AO shells:              46
      Number of SO shells:              46
      Number of primitives:             82
      Number of atomic orbitals:       160
      Number of basis functions:       138

      Number of irreps:                  2
      Integral cutoff                 0.00e+00
      Number of functions per irrep: [  92   46 ]

 OEINTS: Overlap, kinetic, potential, dipole, and quadrupole integrals
         stored in file 35.

      Computing two-electron integrals...done
      Computed 22947389 non-zero two-electron integrals.
        Stored in file 33.

*** tstart() called on c1-11.compute.lan
*** at Tue Mar  9 14:51:39 2021

	Wfn Parameters:
	--------------------
	Wavefunction         = CCSD_T
	Number of irreps     = 2
	Number of MOs        = 138
	Number of active MOs = 136
	AO-Basis             = NONE
	Semicanonical        = false
	Reference            = UHF
	Print Level          = 1

	IRREP	# MOs	# FZDC	# DOCC	# SOCC	# VIRT	# FZVR
	-----	-----	------	------	------	------	------
	 Ap	   92	    2	    5	    1	    84	    0
	 App	   46	    0	    1	    1	    44	    0
	Transforming integrals...
	IWL integrals will be deleted.
	(OO|OO)...
	Presorting SO-basis two-electron integrals.
	Sorting File: SO Ints (nn|nn) nbuckets = 1
	Transforming the one-electron integrals and constructing Fock matrices
	Starting AA/AB first half-transformation.
	Sorting AA/AB half-transformed integrals.
	Starting BB first half-transformation.
	Sorting BB half-transformed integrals.
	First half integral transformation complete.
	Starting AA second half-transformation.
	Starting AB second half-transformation.
	Starting BB second half-transformation.
	Two-electron integral transformation complete.
	(OO|OV)...
	Starting AA second half-transformation.
	Starting AB second half-transformation.
	Starting BB second half-transformation.
	Two-electron integral transformation complete.
	(OO|VV)...
	Starting AA second half-transformation.
	Starting AB second half-transformation.
	Starting BB second half-transformation.
	Two-electron integral transformation complete.
	(OV|OO)...
	Starting AA/AB first half-transformation.
	Sorting AA/AB half-transformed integrals.
	Starting BB first half-transformation.
	Sorting BB half-transformed integrals.
	First half integral transformation complete.
	Starting AA second half-transformation.
	Starting AB second half-transformation.
	Starting BB second half-transformation.
	Two-electron integral transformation complete.
	(OV|OV)...
	Starting AA second half-transformation.
	Starting AB second half-transformation.
	Starting BB second half-transformation.
	Two-electron integral transformation complete.
	(OV|VV)...
	Starting AA second half-transformation.
	Starting AB second half-transformation.
	Starting BB second half-transformation.
	Two-electron integral transformation complete.
	(VV|OO)...
	Starting AA/AB first half-transformation.
	Sorting AA/AB half-transformed integrals.
	Starting BB first half-transformation.
	Sorting BB half-transformed integrals.
	First half integral transformation complete.
	Starting AA second half-transformation.
	Starting AB second half-transformation.
	Starting BB second half-transformation.
	Two-electron integral transformation complete.
	(VV|OV)...
	Starting AA second half-transformation.
	Starting AB second half-transformation.
	Starting BB second half-transformation.
	Two-electron integral transformation complete.
	(VV|VV)...
	Starting AA second half-transformation.
	Starting AB second half-transformation.
	Starting BB second half-transformation.
	Two-electron integral transformation complete.
	Frozen core energy     =   -125.81371722959274

	Size of irrep 0 of <AB|CD> integrals:     19.643 (MW) /    157.141 (MB)
	Size of irrep 1 of <AB|CD> integrals:     13.660 (MW) /    109.283 (MB)
	Total:                                    33.303 (MW) /    266.424 (MB)

	Size of irrep 0 of <ab|cd> integrals:     20.794 (MW) /    166.349 (MB)
	Size of irrep 1 of <ab|cd> integrals:     14.631 (MW) /    117.045 (MB)
	Total:                                    35.424 (MW) /    283.394 (MB)

	Size of irrep 0 of <Ab|Cd> integrals:     83.174 (MW) /    665.395 (MB)
	Size of irrep 1 of <Ab|Cd> integrals:     56.550 (MW) /    452.403 (MB)
	Total:                                   139.725 (MW) /   1117.798 (MB)

	Size of irrep 0 of <IA|BC> integrals:      5.323 (MW) /     42.586 (MB)
	Size of irrep 1 of <IA|BC> integrals:      3.193 (MW) /     25.547 (MB)
	Total:                                     8.517 (MW) /     68.133 (MB)

	Size of irrep 0 of <ia|bc> integrals:      4.348 (MW) /     34.780 (MB)
	Size of irrep 1 of <ia|bc> integrals:      2.372 (MW) /     18.972 (MB)
	Total:                                     6.719 (MW) /     53.752 (MB)

	Size of irrep 0 of <Ia|Bc> integrals:      5.472 (MW) /     43.776 (MB)
	Size of irrep 1 of <Ia|Bc> integrals:      3.309 (MW) /     26.470 (MB)
	Total:                                     8.781 (MW) /     70.246 (MB)

	Size of irrep 0 of <iA|bC> integrals:      4.232 (MW) /     33.853 (MB)
	Size of irrep 1 of <iA|bC> integrals:      2.286 (MW) /     18.289 (MB)
	Total:                                     6.518 (MW) /     52.142 (MB)

	Size of irrep 0 of tIjAb amplitudes:       0.292 (MW) /      2.335 (MB)
	Size of irrep 1 of tIjAb amplitudes:       0.120 (MW) /      0.963 (MB)
	Total:                                     0.412 (MW) /      3.297 (MB)

	Nuclear Rep. energy          =     22.81600292638829
	SCF energy                   =   -150.87441825596969
	One-electron energy          =    -84.29632272075858
	Two-electron (AA) energy     =     10.11729674097045
	Two-electron (BB) energy     =      5.38334917847731
	Two-electron (AB) energy     =     20.91897284854408
	Two-electron energy          =     36.41961876799184
	Reference energy             =   -150.87441825597119

*** tstop() called on c1-11.compute.lan at Tue Mar  9 14:52:20 2021
Module time:
	user time   =     109.17 seconds =       1.82 minutes
	system time =      26.13 seconds =       0.44 minutes
	total time  =         41 seconds =       0.68 minutes
Total time:
	user time   =     180.45 seconds =       3.01 minutes
	system time =      30.22 seconds =       0.50 minutes
	total time  =         52 seconds =       0.87 minutes
            **************************
            *                        *
            *        CCENERGY        *
            *                        *
            **************************

    Nuclear Rep. energy (wfn)     =   22.816002926388293
    SCF energy          (wfn)     = -150.874418255969687
    Reference energy    (file100) = -150.874418255971193

    Input parameters:
    -----------------
    Wave function   =     CCSD_T
    Reference wfn   =     UHF
    Brueckner       =     No
    Memory (Mbytes) =     4000.0
    Maxiter         =     50
    R_Convergence   =     1.0e-10
    E_Convergence   =     1.0e-10
    Restart         =     Yes
    DIIS            =     Yes
    AO Basis        =     NONE
    ABCD            =     NEW
    Cache Level     =     2
    Cache Type      =     LRU
    Print Level     =     1
    Num. of threads =     12
    # Amps to Print =     10
    Print MP2 Amps? =     No
    Analyze T2 Amps =     No
    Print Pair Ener =     No
    Local CC        =     No
    SCS-MP2         =     False
    SCSN-MP2        =     False
    SCS-CCSD        =     False

MP2 correlation energy -0.4165769274707635
                Solving CC Amplitude Equations
                ------------------------------
  Iter             Energy              RMS        T1Diag      D1Diag    New D1Diag    D2Diag
  ----     ---------------------    ---------   ----------  ----------  ----------   --------
     0        -0.416576927470763    0.000e+00    0.000000    0.000000    0.000000    0.000000
     1        -0.427306867153592    5.684e-02    0.010538    0.000000    0.000000    0.000000
     2        -0.435400839534616    1.688e-02    0.011026    0.000000    0.000000    0.000000
     3        -0.437517115273724    8.567e-03    0.012895    0.000000    0.000000    0.000000
     4        -0.437391986551320    2.533e-03    0.013261    0.000000    0.000000    0.000000
     5        -0.437377053901481    1.324e-03    0.013418    0.000000    0.000000    0.000000
     6        -0.437404276348095    5.154e-04    0.013441    0.000000    0.000000    0.000000
     7        -0.437409072813601    2.658e-04    0.013435    0.000000    0.000000    0.000000
     8        -0.437409647955119    9.532e-05    0.013430    0.000000    0.000000    0.000000
     9        -0.437411047569542    6.808e-05    0.013432    0.000000    0.000000    0.000000
    10        -0.437409512682345    5.691e-05    0.013432    0.000000    0.000000    0.000000
    11        -0.437409635937925    5.377e-05    0.013433    0.000000    0.000000    0.000000
    12        -0.437409441015565    5.210e-05    0.013435    0.000000    0.000000    0.000000
    13        -0.437409425462216    5.116e-05    0.013437    0.000000    0.000000    0.000000
    14        -0.437410312827950    4.991e-05    0.013447    0.000000    0.000000    0.000000
    15        -0.437410635547475    4.570e-05    0.013489    0.000000    0.000000    0.000000
    16        -0.437410411411536    3.331e-05    0.013605    0.000000    0.000000    0.000000
    17        -0.437410125488938    1.704e-05    0.013677    0.000000    0.000000    0.000000
    18        -0.437409981971181    8.016e-06    0.013698    0.000000    0.000000    0.000000
    19        -0.437410228096387    3.520e-06    0.013704    0.000000    0.000000    0.000000
    20        -0.437410346048560    1.551e-06    0.013705    0.000000    0.000000    0.000000
    21        -0.437410352625893    6.144e-07    0.013705    0.000000    0.000000    0.000000
    22        -0.437410353560222    2.759e-07    0.013705    0.000000    0.000000    0.000000
    23        -0.437410352931824    1.379e-07    0.013705    0.000000    0.000000    0.000000
    24        -0.437410352216488    5.263e-08    0.013705    0.000000    0.000000    0.000000
    25        -0.437410353104519    2.603e-08    0.013705    0.000000    0.000000    0.000000
    26        -0.437410353527013    1.797e-08    0.013705    0.000000    0.000000    0.000000
    27        -0.437410353649197    1.626e-08    0.013705    0.000000    0.000000    0.000000
    28        -0.437410353627971    1.566e-08    0.013705    0.000000    0.000000    0.000000
    29        -0.437410353539030    1.525e-08    0.013705    0.000000    0.000000    0.000000
    30        -0.437410353362221    1.474e-08    0.013705    0.000000    0.000000    0.000000
    31        -0.437410353396313    1.322e-08    0.013705    0.000000    0.000000    0.000000
    32        -0.437410353629546    8.371e-09    0.013705    0.000000    0.000000    0.000000
    33        -0.437410353713208    3.861e-09    0.013705    0.000000    0.000000    0.000000
    34        -0.437410353765386    1.651e-09    0.013705    0.000000    0.000000    0.000000
    35        -0.437410353771847    6.524e-10    0.013705    0.000000    0.000000    0.000000
    36        -0.437410353770773    2.608e-10    0.013705    0.000000    0.000000    0.000000

      * MP2 total energy                      = -151.290995183441964
      * CCSD total energy                     = -151.311828609741099
      * CCSD(T) total energy                     = -151.324182510726217
*** Psi4 exiting successfully. Buy a developer a beer!
