                               Psi4 1.3.2 release

  ==> Input File <==

--------------------------------------------------------------------------
memory 4 GB

molecule  {
0 3
O    0.000000000000    0.000000000000   -1.588748526308
H    0.000000000000   -0.751130067568   -0.989765661808
H   -0.000000000000    0.751130067568   -0.989765661808
O    0.000000000000    0.000000000000    1.713476995792
}
set {
basis aug-cc-pvtz
reference uhf
e_convergence 10
scf_type pk
freeze_core true
}

set ccenergy {
e_convergence 10
r_convergence 10
}

e = energy('ccsd(t)')

print_out('Stephenergy {}'.format(e))

--------------------------------------------------------------------------

    Molecular point group: c2v

    Geometry (in Angstrom), charge = 0, multiplicity = 3:

       Center              X                  Y                   Z               Mass
    ------------   -----------------  -----------------  -----------------  -----------------
         O           -0.000000000000     0.000000000000    -1.588748526308    15.994914619570
         H            0.000000000000    -0.751130067568    -0.989765661808     1.007825032230
         H           -0.000000000000     0.751130067568    -0.989765661808     1.007825032230
         O           -0.000000000000     0.000000000000     1.713476995792    15.994914619570

  Charge       = 0
  Multiplicity = 3
  Basis Set: AUG-CC-PVTZ
    Blend: AUG-CC-PVTZ

    Orbital Energies [Eh]
    ---------------------

    Alpha Occupied:

       1A1   -20.730164     2A1   -20.562240     3A1    -1.439346
       4A1    -1.347097     1B2    -0.730786     1B1    -0.730269
       2B2    -0.706911     5A1    -0.634526     6A1    -0.579955
       2B1    -0.504875

    Alpha Virtual:

       7A1     0.035711     3B2     0.048589     3B1     0.131689
       8A1     0.133757     9A1     0.149584     4B2     0.158526
       4B1     0.182556     5B2     0.185255    10A1     0.189904
      11A1     0.255034     6B2     0.259811     1A2     0.266042
      12A1     0.274081     5B1     0.321815    13A1     0.372744
       7B2     0.383745    14A1     0.454641     8B2     0.472959
       2A2     0.609657     9B2     0.621189    15A1     0.621653
      16A1     0.625489     6B1     0.643656    17A1     0.717914
       3A2     0.731480    10B2     0.740248     7B1     0.747595
      18A1     0.798465     8B1     0.836024    19A1     0.844317
      11B2     0.851626     9B1     0.916881     4A2     0.938059
      12B2     0.942670    20A1     0.945433    21A1     0.960240
      10B1     0.973425    13B2     0.978376    22A1     1.051976
      14B2     1.056556    11B1     1.134845     5A2     1.188744
      23A1     1.192030    24A1     1.263461    15B2     1.271006
      16B2     1.283885    25A1     1.369400     6A2     1.511194
      12B1     1.590546    26A1     1.668779    27A1     1.830742
      17B2     1.838999    18B2     1.970404    13B1     1.977654
      19B2     1.996930    28A1     2.005188     7A2     2.013761
      14B1     2.029642    29A1     2.039043     8A2     2.047617
      30A1     2.091884    20B2     2.092896    15B1     2.130529
      31A1     2.165710    16B1     2.286912    21B2     2.287384
       9A2     2.333992    32A1     2.366912    33A1     2.404963
      34A1     2.489421    22B2     2.502509    17B1     2.523977
      35A1     2.580806    23B2     2.690260    18B1     2.721108
      36A1     2.827456    10A2     2.890513    24B2     2.909565
      25B2     3.671168    37A1     3.751445    11A2     4.037340
      19B1     4.051638    26B2     4.095043    20B1     4.107182
      38A1     4.172120    21B1     4.278104    27B2     4.282072
      39A1     4.355360    12A2     4.385122    22B1     4.419554
      40A1     4.438784    28B2     4.535113    41A1     4.757077
      29B2     4.860319    13A2     5.151714    30B2     5.173981
      31B2     5.248602    42A1     5.378835    23B1     5.533581
      43A1     5.674131    44A1     6.206702    24B1     6.314110
      32B2     6.315417    14A2     6.374171    45A1     6.381707
      25B1     6.406812    33B2     6.466874    46A1     6.494320
      34B2     6.530771    26B1     6.748823    15A2     6.819888
      47A1     6.821599    27B1     6.933484    48A1     6.936831
      35B2     6.966085    49A1     7.037319    28B1     7.137908
      29B1     7.263591    16A2     7.322204    36B2     7.349687
      17A2     7.358759    50A1     7.368012    51A1     7.555601
      52A1     7.895413    37B2     7.945559    53A1     8.599627
      38B2     8.822644    54A1    15.769604

    Beta Occupied:

       1A1   -20.651617     2A1   -20.562290     3A1    -1.347341
       4A1    -1.097115     1B2    -0.707123     5A1    -0.586084
       6A1    -0.538979     1B1    -0.504852

    Beta Virtual:

       2B2     0.034585     7A1     0.036884     2B1     0.049037
       3B2     0.069594     8A1     0.139772     9A1     0.152083
       3B1     0.160660     4B2     0.180395    10A1     0.190250
       5B2     0.223709     4B1     0.225626     6B2     0.264037
      11A1     0.264095     1A2     0.266443    12A1     0.276004
       5B1     0.322740    13A1     0.376190     7B2     0.389866
      14A1     0.455964     8B2     0.473442     9B2     0.623291
      15A1     0.627545     2A2     0.641739    16A1     0.653907
       6B1     0.655112    17A1     0.719139     3A2     0.732807
       7B1     0.750348    10B2     0.752162    18A1     0.811004
      19A1     0.852319     8B1     0.910973     9B1     0.934176
       4A2     0.939892    11B2     0.941236    12B2     0.947896
      20A1     0.951286    21A1     0.961455    13B2     1.017814
      10B1     1.029744    22A1     1.052796    14B2     1.060597
      11B1     1.142470     5A2     1.189584    23A1     1.196122
      15B2     1.271863    24A1     1.294819    16B2     1.300579
      25A1     1.411213     6A2     1.511371    12B1     1.590730
      26A1     1.684354    27A1     1.832395    17B2     1.840322
      18B2     1.981408    13B1     2.015570    19B2     2.024507
      28A1     2.030411     7A2     2.049934    14B1     2.051954
      29A1     2.102852    20B2     2.141872    30A1     2.172269
       8A2     2.183481    15B1     2.195610    31A1     2.207918
      16B1     2.293019    21B2     2.327437     9A2     2.337729
      32A1     2.380666    33A1     2.420446    34A1     2.492747
      22B2     2.508466    17B1     2.528843    35A1     2.583151
      23B2     2.690512    18B1     2.721232    36A1     2.827992
      10A2     2.890553    24B2     2.911549    25B2     3.671288
      37A1     3.751554    11A2     4.037451    19B1     4.105178
      38A1     4.184678    20B1     4.225442    26B2     4.250353
      21B1     4.278246    27B2     4.295978    39A1     4.368972
      12A2     4.385183    22B1     4.419891    40A1     4.460123
      28B2     4.535619    41A1     4.757441    29B2     4.860545
      13A2     5.151742    30B2     5.173991    31B2     5.248655
      42A1     5.379324    23B1     5.533585    43A1     5.674474
      44A1     6.209696    24B1     6.422908    32B2     6.424009
      14A2     6.450764    45A1     6.455829    25B1     6.461581
      33B2     6.502669    46A1     6.542199    34B2     6.551641
      26B1     6.756055    47A1     6.938367    15A2     7.008752
      48A1     7.011402    27B1     7.039860    35B2     7.075030
      49A1     7.116147    28B1     7.138588    29B1     7.263559
      16A2     7.322256    36B2     7.351347    17A2     7.358841
      50A1     7.369117    51A1     7.556678    52A1     7.895644
      37B2     7.945541    53A1     8.683382    38B2     8.822561
      54A1    15.769601

    Final Occupation by Irrep:
             A1    A2    B1    B2
    DOCC [     6,    0,    1,    1 ]
    SOCC [     0,    0,    1,    1 ]

  @UHF Final Energy:  -150.87337235834943

   => Energetics <=

    Nuclear Repulsion Energy =             22.4389792316118033
    One-Electron Energy =                -252.6631344678336859
    Two-Electron Energy =                  79.3507828778724615
    Total Energy =                       -150.8733723583494282

  UHF NO Occupations:
  HONO-2 :    6 A1 1.9970762
  HONO-1 :    2 B1 1.0000000
  HONO-0 :    2 B2 1.0000000
  LUNO+0 :    7 A1 0.0029238
  LUNO+1 :    8 A1 0.0016683
  LUNO+2 :    9 A1 0.0000024
  LUNO+3 :   10 A1 0.0000007

Computation Completed

Properties will be evaluated at   0.000000,   0.000000,   0.000000 [a0]

Properties computed using the SCF density matrix

  Nuclear Dipole Moment: [e a0]
     X:    -0.0000      Y:     0.0000      Z:    -1.8552

  Electronic Dipole Moment: [e a0]
     X:     0.0000      Y:     0.0000      Z:     2.6964

  Dipole Moment: [e a0]
     X:    -0.0000      Y:     0.0000      Z:     0.8413     Total:     0.8413

  Dipole Moment: [D]
     X:    -0.0000      Y:     0.0000      Z:     2.1383     Total:     2.1383

*** tstop() called on c4-2.compute.lan at Wed Mar 10 09:37:00 2021
Module time:
	user time   =      41.94 seconds =       0.70 minutes
	system time =       1.31 seconds =       0.02 minutes
	total time  =          7 seconds =       0.12 minutes
Total time:
	user time   =      41.94 seconds =       0.70 minutes
	system time =       1.31 seconds =       0.02 minutes
	total time  =          7 seconds =       0.12 minutes
 MINTS: Wrapper to libmints.
   by Justin Turney

   Calculation information:
      Number of threads:                12
      Number of atoms:                   4
      Number of AO shells:              46
      Number of SO shells:              37
      Number of primitives:             82
      Number of atomic orbitals:       160
      Number of basis functions:       138

      Number of irreps:                  4
      Integral cutoff                 0.00e+00
      Number of functions per irrep: [  54   17   29   38 ]

 OEINTS: Overlap, kinetic, potential, dipole, and quadrupole integrals
         stored in file 35.

      Computing two-electron integrals...done
      Computed 11523698 non-zero two-electron integrals.
        Stored in file 33.

*** tstart() called on c4-2.compute.lan
*** at Wed Mar 10 09:37:02 2021

	Wfn Parameters:
	--------------------
	Wavefunction         = CCSD_T
	Number of irreps     = 4
	Number of MOs        = 138
	Number of active MOs = 136
	AO-Basis             = NONE
	Semicanonical        = false
	Reference            = UHF
	Print Level          = 1

	IRREP	# MOs	# FZDC	# DOCC	# SOCC	# VIRT	# FZVR
	-----	-----	------	------	------	------	------
	 A1	   54	    2	    4	    0	    48	    0
	 A2	   17	    0	    0	    0	    17	    0
	 B1	   29	    0	    1	    1	    27	    0
	 B2	   38	    0	    1	    1	    36	    0
	Transforming integrals...
	IWL integrals will be deleted.
	(OO|OO)...
	Presorting SO-basis two-electron integrals.
	Sorting File: SO Ints (nn|nn) nbuckets = 1
	Transforming the one-electron integrals and constructing Fock matrices
	Starting AA/AB first half-transformation.
	Sorting AA/AB half-transformed integrals.
	Starting BB first half-transformation.
	Sorting BB half-transformed integrals.
	First half integral transformation complete.
	Starting AA second half-transformation.
	Starting AB second half-transformation.
	Starting BB second half-transformation.
	Two-electron integral transformation complete.
	(OO|OV)...
	Starting AA second half-transformation.
	Starting AB second half-transformation.
	Starting BB second half-transformation.
	Two-electron integral transformation complete.
	(OO|VV)...
	Starting AA second half-transformation.
	Starting AB second half-transformation.
	Starting BB second half-transformation.
	Two-electron integral transformation complete.
	(OV|OO)...
	Starting AA/AB first half-transformation.
	Sorting AA/AB half-transformed integrals.
	Starting BB first half-transformation.
	Sorting BB half-transformed integrals.
	First half integral transformation complete.
	Starting AA second half-transformation.
	Starting AB second half-transformation.
	Starting BB second half-transformation.
	Two-electron integral transformation complete.
	(OV|OV)...
	Starting AA second half-transformation.
	Starting AB second half-transformation.
	Starting BB second half-transformation.
	Two-electron integral transformation complete.
	(OV|VV)...
	Starting AA second half-transformation.
	Starting AB second half-transformation.
	Starting BB second half-transformation.
	Two-electron integral transformation complete.
	(VV|OO)...
	Starting AA/AB first half-transformation.
	Sorting AA/AB half-transformed integrals.
	Starting BB first half-transformation.
	Sorting BB half-transformed integrals.
	First half integral transformation complete.
	Starting AA second half-transformation.
	Starting AB second half-transformation.
	Starting BB second half-transformation.
	Two-electron integral transformation complete.
	(VV|OV)...
	Starting AA second half-transformation.
	Starting AB second half-transformation.
	Starting BB second half-transformation.
	Two-electron integral transformation complete.
	(VV|VV)...
	Starting AA second half-transformation.
	Starting AB second half-transformation.
	Starting BB second half-transformation.
	Two-electron integral transformation complete.
	Frozen core energy     =   -125.65568007500639

	Size of irrep 0 of <AB|CD> integrals:      5.040 (MW) /     40.320 (MB)
	Size of irrep 1 of <AB|CD> integrals:      3.197 (MW) /     25.576 (MB)
	Size of irrep 2 of <AB|CD> integrals:      3.640 (MW) /     29.124 (MB)
	Size of irrep 3 of <AB|CD> integrals:      4.783 (MW) /     38.264 (MB)
	Total:                                    16.660 (MW) /    133.283 (MB)

	Size of irrep 0 of <ab|cd> integrals:      5.327 (MW) /     42.615 (MB)
	Size of irrep 1 of <ab|cd> integrals:      3.430 (MW) /     27.439 (MB)
	Size of irrep 2 of <ab|cd> integrals:      3.893 (MW) /     31.142 (MB)
	Size of irrep 3 of <ab|cd> integrals:      5.072 (MW) /     40.572 (MB)
	Total:                                    17.721 (MW) /    141.768 (MB)

	Size of irrep 0 of <Ab|Cd> integrals:     21.912 (MW) /    175.294 (MB)
	Size of irrep 1 of <Ab|Cd> integrals:     13.242 (MW) /    105.939 (MB)
	Size of irrep 2 of <Ab|Cd> integrals:     15.062 (MW) /    120.497 (MB)
	Size of irrep 3 of <Ab|Cd> integrals:     19.705 (MW) /    157.638 (MB)
	Total:                                    69.921 (MW) /    559.368 (MB)

	Size of irrep 0 of <IA|BC> integrals:      1.469 (MW) /     11.748 (MB)
	Size of irrep 1 of <IA|BC> integrals:      0.694 (MW) /      5.550 (MB)
	Size of irrep 2 of <IA|BC> integrals:      0.908 (MW) /      7.266 (MB)
	Size of irrep 3 of <IA|BC> integrals:      1.198 (MW) /      9.588 (MB)
	Total:                                     4.269 (MW) /     34.152 (MB)

	Size of irrep 0 of <ia|bc> integrals:      1.220 (MW) /      9.758 (MB)
	Size of irrep 1 of <ia|bc> integrals:      0.493 (MW) /      3.941 (MB)
	Size of irrep 2 of <ia|bc> integrals:      0.698 (MW) /      5.588 (MB)
	Size of irrep 3 of <ia|bc> integrals:      0.959 (MW) /      7.675 (MB)
	Total:                                     3.370 (MW) /     26.961 (MB)

	Size of irrep 0 of <Ia|Bc> integrals:      1.507 (MW) /     12.058 (MB)
	Size of irrep 1 of <Ia|Bc> integrals:      0.721 (MW) /      5.764 (MB)
	Size of irrep 2 of <Ia|Bc> integrals:      0.939 (MW) /      7.514 (MB)
	Size of irrep 3 of <Ia|Bc> integrals:      1.234 (MW) /      9.872 (MB)
	Total:                                     4.401 (MW) /     35.208 (MB)

	Size of irrep 0 of <iA|bC> integrals:      1.194 (MW) /      9.549 (MB)
	Size of irrep 1 of <iA|bC> integrals:      0.477 (MW) /      3.814 (MB)
	Size of irrep 2 of <iA|bC> integrals:      0.671 (MW) /      5.371 (MB)
	Size of irrep 3 of <iA|bC> integrals:      0.928 (MW) /      7.422 (MB)
	Total:                                     3.270 (MW) /     26.156 (MB)

	Size of irrep 0 of tIjAb amplitudes:       0.094 (MW) /      0.749 (MB)
	Size of irrep 1 of tIjAb amplitudes:       0.015 (MW) /      0.116 (MB)
	Size of irrep 2 of tIjAb amplitudes:       0.047 (MW) /      0.373 (MB)
	Size of irrep 3 of tIjAb amplitudes:       0.053 (MW) /      0.426 (MB)
	Total:                                     0.208 (MW) /      1.664 (MB)

	Nuclear Rep. energy          =     22.43897923161180
	SCF energy                   =   -150.87337235834943
	One-electron energy          =    -83.85808565318985
	Two-electron (AA) energy     =     10.04505804678033
	Two-electron (BB) energy     =      5.34481407135166
	Two-electron (AB) energy     =     20.81154202010162
	Two-electron energy          =     36.20141413823362
	Reference energy             =   -150.87337235835082

*** tstop() called on c4-2.compute.lan at Wed Mar 10 09:37:25 2021
Module time:
	user time   =      63.86 seconds =       1.06 minutes
	system time =      11.74 seconds =       0.20 minutes
	total time  =         23 seconds =       0.38 minutes
Total time:
	user time   =     109.93 seconds =       1.83 minutes
	system time =      13.36 seconds =       0.22 minutes
	total time  =         32 seconds =       0.53 minutes
            **************************
            *                        *
            *        CCENERGY        *
            *                        *
            **************************

    Nuclear Rep. energy (wfn)     =   22.438979231611803
    SCF energy          (wfn)     = -150.873372358349428
    Reference energy    (file100) = -150.873372358350821

    Input parameters:
    -----------------
    Wave function   =     CCSD_T
    Reference wfn   =     UHF
    Brueckner       =     No
    Memory (Mbytes) =     4000.0
    Maxiter         =     50
    R_Convergence   =     1.0e-10
    E_Convergence   =     1.0e-10
    Restart         =     Yes
    DIIS            =     Yes
    AO Basis        =     NONE
    ABCD            =     NEW
    Cache Level     =     2
    Cache Type      =     LRU
    Print Level     =     1
    Num. of threads =     12
    # Amps to Print =     10
    Print MP2 Amps? =     No
    Analyze T2 Amps =     No
    Print Pair Ener =     No
    Local CC        =     No
    SCS-MP2         =     False
    SCSN-MP2        =     False
    SCS-CCSD        =     False

MP2 correlation energy -0.4158535173457499
                Solving CC Amplitude Equations
                ------------------------------
  Iter             Energy              RMS        T1Diag      D1Diag    New D1Diag    D2Diag
  ----     ---------------------    ---------   ----------  ----------  ----------   --------
     0        -0.415853517345750    0.000e+00    0.000000    0.000000    0.000000    0.000000
     1        -0.426727539726943    5.639e-02    0.010375    0.000000    0.000000    0.000000
     2        -0.434821727353425    1.677e-02    0.010890    0.000000    0.000000    0.000000
     3        -0.436913352256734    8.427e-03    0.012716    0.000000    0.000000    0.000000
     4        -0.436789198351898    2.491e-03    0.013065    0.000000    0.000000    0.000000
     5        -0.436775814406731    1.276e-03    0.013212    0.000000    0.000000    0.000000
     6        -0.436801582123534    5.008e-04    0.013229    0.000000    0.000000    0.000000
     7        -0.436806039524398    2.381e-04    0.013221    0.000000    0.000000    0.000000
     8        -0.436806705469634    7.025e-05    0.013215    0.000000    0.000000    0.000000
     9        -0.436807962880066    3.177e-05    0.013215    0.000000    0.000000    0.000000
    10        -0.436806701306691    1.326e-05    0.013215    0.000000    0.000000    0.000000
    11        -0.436806805057267    7.327e-06    0.013215    0.000000    0.000000    0.000000
    12        -0.436806761440836    3.664e-06    0.013216    0.000000    0.000000    0.000000
    13        -0.436806768938903    1.794e-06    0.013216    0.000000    0.000000    0.000000
    14        -0.436806809518996    7.462e-07    0.013216    0.000000    0.000000    0.000000
    15        -0.436806809782551    1.845e-07    0.013216    0.000000    0.000000    0.000000
    16        -0.436806809889652    1.100e-07    0.013216    0.000000    0.000000    0.000000
    17        -0.436806810807947    3.120e-08    0.013216    0.000000    0.000000    0.000000
    18        -0.436806810391122    1.374e-08    0.013216    0.000000    0.000000    0.000000

      * MP2 total energy                      = -151.289225875696559
      * CCSD total energy                     = -151.310179168555578
      * CCSD(T) total energy                     = -151.322418427580828
*** Psi4 exiting successfully. Buy a developer a beer!
