                               Psi4 1.3.2 release

  ==> Input File <==

--------------------------------------------------------------------------
memory 4 GB

molecule  {
0 3
O    0.000000000000    0.000000000000   -1.588748526300
H    0.000000000000   -0.752993714200   -0.989765661800
H   -0.000000000000    0.752993714200   -0.989765661800
O    0.000000000000   -0.000000000000    1.713476995800
}
set {
basis aug-cc-pvtz
reference uhf
e_convergence 10
scf_type pk
freeze_core true
}

set ccenergy {
e_convergence 10
r_convergence 10
}

e = energy('ccsd(t)')

print_out('Stephenergy {}'.format(e))

--------------------------------------------------------------------------

    Molecular point group: c2v

    Geometry (in Angstrom), charge = 0, multiplicity = 3:

       Center              X                  Y                   Z               Mass
    ------------   -----------------  -----------------  -----------------  -----------------
         O            0.000000000000     0.000000000000    -1.588748526308    15.994914619570
         H            0.000000000000    -0.752993714200    -0.989765661808     1.007825032230
         H           -0.000000000000     0.752993714200    -0.989765661808     1.007825032230
         O            0.000000000000     0.000000000000     1.713476995792    15.994914619570

  Charge       = 0
  Multiplicity = 3
  Basis Set: AUG-CC-PVTZ
    Blend: AUG-CC-PVTZ

    Orbital Energies [Eh]
    ---------------------

    Alpha Occupied:

       1A1   -20.730109     2A1   -20.562440     3A1    -1.439295
       4A1    -1.346247     1B2    -0.730733     1B1    -0.730218
       2B2    -0.706403     5A1    -0.634458     6A1    -0.579415
       2B1    -0.504716

    Alpha Virtual:

       7A1     0.035690     3B2     0.048574     3B1     0.131727
       8A1     0.133766     9A1     0.149541     4B2     0.158531
       4B1     0.182597     5B2     0.185205    10A1     0.189875
      11A1     0.254978     6B2     0.259709     1A2     0.265979
      12A1     0.274074     5B1     0.321850    13A1     0.372729
       7B2     0.383650    14A1     0.454211     8B2     0.472725
       2A2     0.609663     9B2     0.621108    15A1     0.621656
      16A1     0.625213     6B1     0.643571    17A1     0.717667
       3A2     0.731396    10B2     0.740158     7B1     0.747729
      18A1     0.798535     8B1     0.836117    19A1     0.844359
      11B2     0.851573     9B1     0.917003     4A2     0.937849
      12B2     0.942398    20A1     0.945579    21A1     0.960096
      10B1     0.973276    13B2     0.978276    22A1     1.051292
      14B2     1.056032    11B1     1.134642     5A2     1.188244
      23A1     1.191244    24A1     1.263523    15B2     1.271477
      16B2     1.283664    25A1     1.369602     6A2     1.510698
      12B1     1.590118    26A1     1.669061    27A1     1.831432
      17B2     1.836717    18B2     1.969859    13B1     1.977694
      19B2     1.996194    28A1     2.005147     7A2     2.013786
      14B1     2.029591    29A1     2.038944     8A2     2.047631
      30A1     2.090955    20B2     2.092549    15B1     2.130463
      31A1     2.165341    16B1     2.286792    21B2     2.287096
       9A2     2.333646    32A1     2.367395    33A1     2.404504
      34A1     2.488462    22B2     2.502461    17B1     2.523137
      35A1     2.580467    23B2     2.691595    18B1     2.721380
      36A1     2.825176    10A2     2.889663    24B2     2.910071
      25B2     3.668514    37A1     3.750188    11A2     4.035371
      19B1     4.051647    26B2     4.094956    20B1     4.105563
      38A1     4.172193    21B1     4.279188    27B2     4.279219
      39A1     4.357860    12A2     4.384366    22B1     4.418166
      40A1     4.438418    28B2     4.532878    41A1     4.754555
      29B2     4.855139    13A2     5.148137    30B2     5.169135
      31B2     5.247445    42A1     5.372571    23B1     5.528419
      43A1     5.673582    44A1     6.203126    24B1     6.314157
      32B2     6.315465    14A2     6.374208    45A1     6.381761
      25B1     6.406831    33B2     6.466848    46A1     6.493778
      34B2     6.531454    26B1     6.748240    15A2     6.819940
      47A1     6.821623    48A1     6.932550    27B1     6.933376
      35B2     6.966142    49A1     7.036814    28B1     7.136534
      29B1     7.262063    16A2     7.318577    36B2     7.348304
      17A2     7.358453    50A1     7.366475    51A1     7.551831
      52A1     7.895011    37B2     7.939620    53A1     8.598982
      38B2     8.813914    54A1    15.725195

    Beta Occupied:

       1A1   -20.651564     2A1   -20.562490     3A1    -1.346492
       4A1    -1.097066     1B2    -0.706611     5A1    -0.585581
       6A1    -0.538879     1B1    -0.504694

    Beta Virtual:

       2B2     0.034591     7A1     0.036862     2B1     0.049074
       3B2     0.069600     8A1     0.139782     9A1     0.152033
       3B1     0.160720     4B2     0.180389    10A1     0.190220
       5B2     0.223651     4B1     0.225653     6B2     0.263969
      11A1     0.264010     1A2     0.266379    12A1     0.276031
       5B1     0.322773    13A1     0.376175     7B2     0.389762
      14A1     0.455534     8B2     0.473211     9B2     0.623210
      15A1     0.627213     2A2     0.641739    16A1     0.653985
       6B1     0.655022    17A1     0.718882     3A2     0.732726
       7B1     0.750484    10B2     0.752062    18A1     0.811083
      19A1     0.852355     8B1     0.911346     9B1     0.933903
       4A2     0.939688    11B2     0.941004    12B2     0.947722
      20A1     0.951424    21A1     0.961289    13B2     1.017768
      10B1     1.029721    22A1     1.052118    14B2     1.060093
      11B1     1.142259     5A2     1.189082    23A1     1.195299
      15B2     1.272374    24A1     1.294864    16B2     1.300349
      25A1     1.411590     6A2     1.510876    12B1     1.590302
      26A1     1.684525    27A1     1.833089    17B2     1.838004
      18B2     1.980239    13B1     2.015610    19B2     2.024386
      28A1     2.030203     7A2     2.049938    14B1     2.051875
      29A1     2.101725    20B2     2.141451    30A1     2.172307
       8A2     2.183506    15B1     2.195521    31A1     2.207774
      16B1     2.292951    21B2     2.327258     9A2     2.337393
      32A1     2.381188    33A1     2.419858    34A1     2.491896
      22B2     2.508428    17B1     2.528002    35A1     2.582789
      23B2     2.691845    18B1     2.721502    36A1     2.825710
      10A2     2.889702    24B2     2.912051    25B2     3.668627
      37A1     3.750295    11A2     4.035484    19B1     4.103589
      38A1     4.184946    20B1     4.225416    26B2     4.249081
      21B1     4.279320    27B2     4.294305    39A1     4.371287
      12A2     4.384427    22B1     4.418519    40A1     4.459740
      28B2     4.533392    41A1     4.754925    29B2     4.855367
      13A2     5.148165    30B2     5.169144    31B2     5.247500
      42A1     5.373050    23B1     5.528422    43A1     5.673925
      44A1     6.206044    24B1     6.422954    32B2     6.424061
      14A2     6.450800    45A1     6.455911    25B1     6.461606
      33B2     6.503055    46A1     6.541702    34B2     6.551909
      26B1     6.755407    47A1     6.933856    15A2     7.008803
      48A1     7.011388    27B1     7.039792    35B2     7.075070
      49A1     7.115866    28B1     7.137231    29B1     7.262031
      16A2     7.318622    36B2     7.349978    17A2     7.358542
      50A1     7.367595    51A1     7.552941    52A1     7.895230
      37B2     7.939602    53A1     8.682752    38B2     8.813831
      54A1    15.725192

    Final Occupation by Irrep:
             A1    A2    B1    B2
    DOCC [     6,    0,    1,    1 ]
    SOCC [     0,    0,    1,    1 ]

  @UHF Final Energy:  -150.87326693261602

   => Energetics <=

    Nuclear Repulsion Energy =             22.4242176818034302
    One-Electron Energy =                -252.6375583896724208
    Two-Electron Energy =                  79.3400737752529608
    Total Energy =                       -150.8732669326160192

  UHF NO Occupations:
  HONO-2 :    6 A1 1.9970764
  HONO-1 :    2 B2 1.0000000
  HONO-0 :    2 B1 1.0000000
  LUNO+0 :    7 A1 0.0029236
  LUNO+1 :    8 A1 0.0016679
  LUNO+2 :    9 A1 0.0000024
  LUNO+3 :   10 A1 0.0000007

Computation Completed

Properties will be evaluated at   0.000000,   0.000000,   0.000000 [a0]

Properties computed using the SCF density matrix

  Nuclear Dipole Moment: [e a0]
     X:     0.0000      Y:     0.0000      Z:    -1.8552

  Electronic Dipole Moment: [e a0]
     X:     0.0000      Y:     0.0000      Z:     2.6960

  Dipole Moment: [e a0]
     X:     0.0000      Y:     0.0000      Z:     0.8408     Total:     0.8408

  Dipole Moment: [D]
     X:     0.0000      Y:     0.0000      Z:     2.1371     Total:     2.1371

*** tstop() called on b1-8.compute.lan at Wed Mar 10 09:36:53 2021
Module time:
	user time   =      35.87 seconds =       0.60 minutes
	system time =       0.91 seconds =       0.02 minutes
	total time  =          4 seconds =       0.07 minutes
Total time:
	user time   =      35.87 seconds =       0.60 minutes
	system time =       0.91 seconds =       0.02 minutes
	total time  =          4 seconds =       0.07 minutes
 MINTS: Wrapper to libmints.
   by Justin Turney

   Calculation information:
      Number of threads:                12
      Number of atoms:                   4
      Number of AO shells:              46
      Number of SO shells:              37
      Number of primitives:             82
      Number of atomic orbitals:       160
      Number of basis functions:       138

      Number of irreps:                  4
      Integral cutoff                 0.00e+00
      Number of functions per irrep: [  54   17   29   38 ]

 OEINTS: Overlap, kinetic, potential, dipole, and quadrupole integrals
         stored in file 35.

      Computing two-electron integrals...done
      Computed 11341724 non-zero two-electron integrals.
        Stored in file 33.

*** tstart() called on b1-8.compute.lan
*** at Wed Mar 10 09:36:55 2021

	Wfn Parameters:
	--------------------
	Wavefunction         = CCSD_T
	Number of irreps     = 4
	Number of MOs        = 138
	Number of active MOs = 136
	AO-Basis             = NONE
	Semicanonical        = false
	Reference            = UHF
	Print Level          = 1

	IRREP	# MOs	# FZDC	# DOCC	# SOCC	# VIRT	# FZVR
	-----	-----	------	------	------	------	------
	 A1	   54	    2	    4	    0	    48	    0
	 A2	   17	    0	    0	    0	    17	    0
	 B1	   29	    0	    1	    1	    27	    0
	 B2	   38	    0	    1	    1	    36	    0
	Transforming integrals...
	IWL integrals will be deleted.
	(OO|OO)...
	Presorting SO-basis two-electron integrals.
	Sorting File: SO Ints (nn|nn) nbuckets = 1
	Transforming the one-electron integrals and constructing Fock matrices
	Starting AA/AB first half-transformation.
	Sorting AA/AB half-transformed integrals.
	Starting BB first half-transformation.
	Sorting BB half-transformed integrals.
	First half integral transformation complete.
	Starting AA second half-transformation.
	Starting AB second half-transformation.
	Starting BB second half-transformation.
	Two-electron integral transformation complete.
	(OO|OV)...
	Starting AA second half-transformation.
	Starting AB second half-transformation.
	Starting BB second half-transformation.
	Two-electron integral transformation complete.
	(OO|VV)...
	Starting AA second half-transformation.
	Starting AB second half-transformation.
	Starting BB second half-transformation.
	Two-electron integral transformation complete.
	(OV|OO)...
	Starting AA/AB first half-transformation.
	Sorting AA/AB half-transformed integrals.
	Starting BB first half-transformation.
	Sorting BB half-transformed integrals.
	First half integral transformation complete.
	Starting AA second half-transformation.
	Starting AB second half-transformation.
	Starting BB second half-transformation.
	Two-electron integral transformation complete.
	(OV|OV)...
	Starting AA second half-transformation.
	Starting AB second half-transformation.
	Starting BB second half-transformation.
	Two-electron integral transformation complete.
	(OV|VV)...
	Starting AA second half-transformation.
	Starting AB second half-transformation.
	Starting BB second half-transformation.
	Two-electron integral transformation complete.
	(VV|OO)...
	Starting AA/AB first half-transformation.
	Sorting AA/AB half-transformed integrals.
	Starting BB first half-transformation.
	Sorting BB half-transformed integrals.
	First half integral transformation complete.
	Starting AA second half-transformation.
	Starting AB second half-transformation.
	Starting BB second half-transformation.
	Two-electron integral transformation complete.
	(VV|OV)...
	Starting AA second half-transformation.
	Starting AB second half-transformation.
	Starting BB second half-transformation.
	Two-electron integral transformation complete.
	(VV|VV)...
	Starting AA second half-transformation.
	Starting AB second half-transformation.
	Starting BB second half-transformation.
	Two-electron integral transformation complete.
	Frozen core energy     =   -125.65220977002994

	Size of irrep 0 of <AB|CD> integrals:      5.040 (MW) /     40.320 (MB)
	Size of irrep 1 of <AB|CD> integrals:      3.197 (MW) /     25.576 (MB)
	Size of irrep 2 of <AB|CD> integrals:      3.640 (MW) /     29.124 (MB)
	Size of irrep 3 of <AB|CD> integrals:      4.783 (MW) /     38.264 (MB)
	Total:                                    16.660 (MW) /    133.283 (MB)

	Size of irrep 0 of <ab|cd> integrals:      5.327 (MW) /     42.615 (MB)
	Size of irrep 1 of <ab|cd> integrals:      3.430 (MW) /     27.439 (MB)
	Size of irrep 2 of <ab|cd> integrals:      3.893 (MW) /     31.142 (MB)
	Size of irrep 3 of <ab|cd> integrals:      5.072 (MW) /     40.572 (MB)
	Total:                                    17.721 (MW) /    141.768 (MB)

	Size of irrep 0 of <Ab|Cd> integrals:     21.912 (MW) /    175.294 (MB)
	Size of irrep 1 of <Ab|Cd> integrals:     13.242 (MW) /    105.939 (MB)
	Size of irrep 2 of <Ab|Cd> integrals:     15.062 (MW) /    120.497 (MB)
	Size of irrep 3 of <Ab|Cd> integrals:     19.705 (MW) /    157.638 (MB)
	Total:                                    69.921 (MW) /    559.368 (MB)

	Size of irrep 0 of <IA|BC> integrals:      1.469 (MW) /     11.748 (MB)
	Size of irrep 1 of <IA|BC> integrals:      0.694 (MW) /      5.550 (MB)
	Size of irrep 2 of <IA|BC> integrals:      0.908 (MW) /      7.266 (MB)
	Size of irrep 3 of <IA|BC> integrals:      1.198 (MW) /      9.588 (MB)
	Total:                                     4.269 (MW) /     34.152 (MB)

	Size of irrep 0 of <ia|bc> integrals:      1.220 (MW) /      9.758 (MB)
	Size of irrep 1 of <ia|bc> integrals:      0.493 (MW) /      3.941 (MB)
	Size of irrep 2 of <ia|bc> integrals:      0.698 (MW) /      5.588 (MB)
	Size of irrep 3 of <ia|bc> integrals:      0.959 (MW) /      7.675 (MB)
	Total:                                     3.370 (MW) /     26.961 (MB)

	Size of irrep 0 of <Ia|Bc> integrals:      1.507 (MW) /     12.058 (MB)
	Size of irrep 1 of <Ia|Bc> integrals:      0.721 (MW) /      5.764 (MB)
	Size of irrep 2 of <Ia|Bc> integrals:      0.939 (MW) /      7.514 (MB)
	Size of irrep 3 of <Ia|Bc> integrals:      1.234 (MW) /      9.872 (MB)
	Total:                                     4.401 (MW) /     35.208 (MB)

	Size of irrep 0 of <iA|bC> integrals:      1.194 (MW) /      9.549 (MB)
	Size of irrep 1 of <iA|bC> integrals:      0.477 (MW) /      3.814 (MB)
	Size of irrep 2 of <iA|bC> integrals:      0.671 (MW) /      5.371 (MB)
	Size of irrep 3 of <iA|bC> integrals:      0.928 (MW) /      7.422 (MB)
	Total:                                     3.270 (MW) /     26.156 (MB)

	Size of irrep 0 of tIjAb amplitudes:       0.094 (MW) /      0.749 (MB)
	Size of irrep 1 of tIjAb amplitudes:       0.015 (MW) /      0.116 (MB)
	Size of irrep 2 of tIjAb amplitudes:       0.047 (MW) /      0.373 (MB)
	Size of irrep 3 of tIjAb amplitudes:       0.053 (MW) /      0.426 (MB)
	Total:                                     0.208 (MW) /      1.664 (MB)

	Nuclear Rep. energy          =     22.42421768180343
	SCF energy                   =   -150.87326693261602
	One-electron energy          =    -83.83974183253950
	Two-electron (AA) energy     =     10.04368007829748
	Two-electron (BB) energy     =      5.34347036835196
	Two-electron (AB) energy     =     20.80731654149917
	Two-electron energy          =     36.19446698814860
	Reference energy             =   -150.87326693261741

*** tstop() called on b1-8.compute.lan at Wed Mar 10 09:37:16 2021
Module time:
	user time   =     155.45 seconds =       2.59 minutes
	system time =       7.70 seconds =       0.13 minutes
	total time  =         21 seconds =       0.35 minutes
Total time:
	user time   =     196.63 seconds =       3.28 minutes
	system time =       8.92 seconds =       0.15 minutes
	total time  =         27 seconds =       0.45 minutes
            **************************
            *                        *
            *        CCENERGY        *
            *                        *
            **************************

    Nuclear Rep. energy (wfn)     =   22.424217681803430
    SCF energy          (wfn)     = -150.873266932616019
    Reference energy    (file100) = -150.873266932617412

    Input parameters:
    -----------------
    Wave function   =     CCSD_T
    Reference wfn   =     UHF
    Brueckner       =     No
    Memory (Mbytes) =     4000.0
    Maxiter         =     50
    R_Convergence   =     1.0e-10
    E_Convergence   =     1.0e-10
    Restart         =     Yes
    DIIS            =     Yes
    AO Basis        =     NONE
    ABCD            =     NEW
    Cache Level     =     2
    Cache Type      =     LRU
    Print Level     =     1
    Num. of threads =     12
    # Amps to Print =     10
    Print MP2 Amps? =     No
    Analyze T2 Amps =     No
    Print Pair Ener =     No
    Local CC        =     No
    SCS-MP2         =     False
    SCSN-MP2        =     False
    SCS-CCSD        =     False

MP2 correlation energy -0.4159593535495103
                Solving CC Amplitude Equations
                ------------------------------
  Iter             Energy              RMS        T1Diag      D1Diag    New D1Diag    D2Diag
  ----     ---------------------    ---------   ----------  ----------  ----------   --------
     0        -0.415959353549510    0.000e+00    0.000000    0.000000    0.000000    0.000000
     1        -0.426802454085715    5.648e-02    0.010392    0.000000    0.000000    0.000000
     2        -0.434909976854152    1.681e-02    0.010904    0.000000    0.000000    0.000000
     3        -0.437007680387802    8.445e-03    0.012735    0.000000    0.000000    0.000000
     4        -0.436883495419193    2.494e-03    0.013085    0.000000    0.000000    0.000000
     5        -0.436870048248848    1.277e-03    0.013232    0.000000    0.000000    0.000000
     6        -0.436895795176378    5.014e-04    0.013249    0.000000    0.000000    0.000000
     7        -0.436900257620048    2.387e-04    0.013241    0.000000    0.000000    0.000000
     8        -0.436900929132233    7.046e-05    0.013235    0.000000    0.000000    0.000000
     9        -0.436902192823152    3.191e-05    0.013235    0.000000    0.000000    0.000000
    10        -0.436900925444296    1.333e-05    0.013235    0.000000    0.000000    0.000000
    11        -0.436901029818964    7.372e-06    0.013235    0.000000    0.000000    0.000000
    12        -0.436900985781365    3.685e-06    0.013236    0.000000    0.000000    0.000000
    13        -0.436900993480713    1.803e-06    0.013236    0.000000    0.000000    0.000000
    14        -0.436901034286999    7.492e-07    0.013236    0.000000    0.000000    0.000000
    15        -0.436901034533037    1.853e-07    0.013236    0.000000    0.000000    0.000000
    16        -0.436901034637565    1.105e-07    0.013236    0.000000    0.000000    0.000000
    17        -0.436901035565589    3.138e-08    0.013236    0.000000    0.000000    0.000000
    18        -0.436901035147302    1.381e-08    0.013236    0.000000    0.000000    0.000000

      * MP2 total energy                      = -151.289226286166922
      * CCSD total energy                     = -151.310167967578934
      * CCSD(T) total energy                     = -151.322421171286607
*** Psi4 exiting successfully. Buy a developer a beer!
