                               Psi4 1.3.2 release

  ==> Input File <==

--------------------------------------------------------------------------
memory 4 GB

molecule  {
0 3
O   -0.000000000000    0.000000000000    1.259811948900
H    0.000000000000   -0.760493697200    1.848418848300
H   -0.000000000000    0.760493697200    1.848418848300
O   -0.000000000000    0.000000000000   -1.492746332000
}
set {
basis aug-cc-pvtz
reference uhf
e_convergence 10
scf_type pk
freeze_core true
}

set ccenergy {
e_convergence 10
r_convergence 10
}

e = energy('ccsd(t)')

print_out('Stephenergy {}'.format(e))

--------------------------------------------------------------------------

    Molecular point group: c2v

    Geometry (in Angstrom), charge = 0, multiplicity = 3:

       Center              X                  Y                   Z               Mass
    ------------   -----------------  -----------------  -----------------  -----------------
         O           -0.000000000000     0.000000000000     1.259811948868    15.994914619570
         H            0.000000000000    -0.760493697200     1.848418848268     1.007825032230
         H           -0.000000000000     0.760493697200     1.848418848268     1.007825032230
         O           -0.000000000000     0.000000000000    -1.492746332032    15.994914619570

  Charge       = 0
  Multiplicity = 3
  Basis Set: AUG-CC-PVTZ
    Blend: AUG-CC-PVTZ

    Orbital Energies [Eh]
    ---------------------

    Alpha Occupied:

       1A1   -20.684088     2A1   -20.571218     3A1    -1.393591
       4A1    -1.355263     1B2    -0.719014     5A1    -0.688110
       1B1    -0.684856     6A1    -0.586065     2B2    -0.585866
       2B1    -0.514039

    Alpha Virtual:

       7A1     0.029567     3B2     0.047661     8A1     0.118310
       3B1     0.154206     9A1     0.159465     4B2     0.180231
       5B2     0.187235     4B1     0.192824    10A1     0.198115
       1A2     0.263625     6B2     0.264440    11A1     0.265404
      12A1     0.314441     5B1     0.327199    13A1     0.376030
       7B2     0.380347    14A1     0.449820     8B2     0.464275
       9B2     0.600166     6B1     0.644060    15A1     0.647694
       2A2     0.658234    16A1     0.667012    17A1     0.699200
       3A2     0.721670    10B2     0.724226     7B1     0.768885
      18A1     0.792887    19A1     0.820145     8B1     0.837603
      20A1     0.860400     9B1     0.901362    11B2     0.918587
       4A2     0.924947    12B2     0.946658    13B2     0.981284
      21A1     0.991528    10B1     1.015570    22A1     1.046834
      14B2     1.051526    11B1     1.123764     5A2     1.176700
      23A1     1.191909    15B2     1.200956    16B2     1.330277
      24A1     1.335285    25A1     1.452397     6A2     1.507280
      12B1     1.595267    26A1     1.669413    27A1     1.812305
      17B2     1.821112    18B2     1.976693    28A1     2.041056
      13B1     2.048408    19B2     2.054440     7A2     2.058180
      14B1     2.059267    29A1     2.079079    30A1     2.115102
       8A2     2.119402    20B2     2.138097    31A1     2.141954
      15B1     2.147879    32A1     2.253123    21B2     2.273058
      16B1     2.302770     9A2     2.311659    17B1     2.437947
      33A1     2.475435    22B2     2.481973    34A1     2.491369
      35A1     2.698193    18B1     2.717029    23B2     2.722170
      36A1     2.844200    24B2     2.862126    10A2     2.879908
      25B2     3.692677    37A1     3.753994    11A2     4.012576
      19B1     4.079419    20B1     4.100076    38A1     4.143354
      26B2     4.184620    27B2     4.281840    21B1     4.290906
      39A1     4.356021    12A2     4.382204    40A1     4.430014
      22B1     4.453445    28B2     4.514393    41A1     4.791672
      29B2     4.838374    30B2     5.139820    13A2     5.144152
      31B2     5.249084    42A1     5.339673    23B1     5.515035
      43A1     5.687537    44A1     6.197996    24B1     6.390570
      14A2     6.410999    45A1     6.411137    32B2     6.424300
      25B1     6.436084    33B2     6.491105    46A1     6.541451
      34B2     6.581730    26B1     6.718507    27B1     6.903879
      47A1     6.907729    15A2     6.925052    48A1     6.943543
      35B2     6.987036    49A1     7.046305    28B1     7.134913
      29B1     7.278822    16A2     7.305237    36B2     7.310365
      17A2     7.352529    50A1     7.436720    51A1     7.542883
      52A1     7.910640    37B2     7.914046    38B2     8.803801
      53A1     8.882768    54A1    15.771789

    Beta Occupied:

       1A1   -20.605207     2A1   -20.570721     3A1    -1.354540
       4A1    -1.050760     1B2    -0.718660     5A1    -0.587995
       1B1    -0.513330     2B2    -0.495267

    Beta Virtual:

       6A1     0.029407     3B2     0.047743     2B1     0.086799
       7A1     0.092060     8A1     0.141271     9A1     0.166989
       3B1     0.170711     4B2     0.180831     5B2     0.190868
      10A1     0.225623     4B1     0.253497     1A2     0.263627
       6B2     0.264877    11A1     0.288718    12A1     0.316876
       5B1     0.328476     7B2     0.380518    13A1     0.386542
      14A1     0.450888     8B2     0.464482     9B2     0.601820
      15A1     0.660266     6B1     0.667847     2A2     0.672600
      16A1     0.674071    17A1     0.716478     3A2     0.722162
      10B2     0.736392     7B1     0.780404    18A1     0.807131
       8B1     0.846904    19A1     0.851356     4A2     0.925361
      20A1     0.928083    11B2     0.936482    12B2     0.953440
      13B2     0.985170     9B1     0.987637    21A1     0.998594
      14B2     1.052647    22A1     1.053374    10B1     1.061404
      11B1     1.140664     5A2     1.176902    23A1     1.193368
      15B2     1.203651    16B2     1.332725    24A1     1.391904
      25A1     1.490527     6A2     1.507720    12B1     1.597260
      26A1     1.700202    27A1     1.817609    17B2     1.821439
      18B2     1.978175    28A1     2.070489    13B1     2.071147
      19B2     2.071841     7A2     2.082865    29A1     2.099155
      14B1     2.101379    30A1     2.155744    20B2     2.185085
       8A2     2.202553    31A1     2.209296    15B1     2.260385
      32A1     2.311472     9A2     2.311789    16B1     2.317936
      21B2     2.323610    17B1     2.446543    33A1     2.483004
      22B2     2.484816    34A1     2.524784    35A1     2.705169
      18B1     2.718811    23B2     2.723086    36A1     2.856800
      24B2     2.862263    10A2     2.879945    25B2     3.693611
      37A1     3.754128    11A2     4.012607    19B1     4.081756
      38A1     4.175425    26B2     4.219671    20B1     4.260061
      27B2     4.293207    21B1     4.295784    12A2     4.382317
      39A1     4.426321    22B1     4.458801    40A1     4.474543
      28B2     4.514485    41A1     4.803073    29B2     4.838540
      30B2     5.140014    13A2     5.144233    31B2     5.249548
      42A1     5.340312    23B1     5.515154    43A1     5.692437
      44A1     6.199567    24B1     6.486109    14A2     6.487826
      32B2     6.488180    45A1     6.494583    25B1     6.500150
      33B2     6.526014    34B2     6.610637    46A1     6.613000
      26B1     6.726179    47A1     6.961288    15A2     7.038600
      48A1     7.042640    27B1     7.086392    35B2     7.098878
      28B1     7.135349    49A1     7.173590    29B1     7.282962
      16A2     7.305523    36B2     7.310568    17A2     7.352972
      50A1     7.439533    51A1     7.543994    52A1     7.911250
      37B2     7.914419    38B2     8.804196    53A1     8.961944
      54A1    15.772132

    Final Occupation by Irrep:
             A1    A2    B1    B2
    DOCC [     5,    0,    1,    2 ]
    SOCC [     1,    0,    1,    0 ]

  @UHF Final Energy:  -150.87345282292992

   => Energetics <=

    Nuclear Repulsion Energy =             23.9270729637472748
    One-Electron Energy =                -255.9224612480568339
    Two-Electron Energy =                  81.1219354613796355
    Total Energy =                       -150.8734528229299485

  UHF NO Occupations:
  HONO-2 :    5 A1 1.9970482
  HONO-1 :    2 B1 1.0000000
  HONO-0 :    6 A1 1.0000000
  LUNO+0 :    7 A1 0.0029518
  LUNO+1 :    3 B2 0.0017985
  LUNO+2 :    8 A1 0.0000240
  LUNO+3 :    9 A1 0.0000024

Computation Completed

Properties will be evaluated at   0.000000,   0.000000,   0.000000 [a0]

Properties computed using the SCF density matrix

  Nuclear Dipole Moment: [e a0]
     X:    -0.0000      Y:     0.0000      Z:     3.4646

  Electronic Dipole Moment: [e a0]
     X:     0.0000      Y:     0.0000      Z:    -2.6276

  Dipole Moment: [e a0]
     X:    -0.0000      Y:     0.0000      Z:     0.8370     Total:     0.8370

  Dipole Moment: [D]
     X:    -0.0000      Y:     0.0000      Z:     2.1274     Total:     2.1274

*** tstop() called on c2-1.compute.lan at Mon Mar  8 17:26:14 2021
Module time:
	user time   =      44.82 seconds =       0.75 minutes
	system time =       1.88 seconds =       0.03 minutes
	total time  =          5 seconds =       0.08 minutes
Total time:
	user time   =      44.82 seconds =       0.75 minutes
	system time =       1.88 seconds =       0.03 minutes
	total time  =          5 seconds =       0.08 minutes
 MINTS: Wrapper to libmints.
   by Justin Turney

   Calculation information:
      Number of threads:                12
      Number of atoms:                   4
      Number of AO shells:              46
      Number of SO shells:              37
      Number of primitives:             82
      Number of atomic orbitals:       160
      Number of basis functions:       138

      Number of irreps:                  4
      Integral cutoff                 0.00e+00
      Number of functions per irrep: [  54   17   29   38 ]

 OEINTS: Overlap, kinetic, potential, dipole, and quadrupole integrals
         stored in file 35.

      Computing two-electron integrals...done
      Computed 11525191 non-zero two-electron integrals.
        Stored in file 33.

*** tstart() called on c2-1.compute.lan
*** at Mon Mar  8 17:26:16 2021

	Wfn Parameters:
	--------------------
	Wavefunction         = CCSD_T
	Number of irreps     = 4
	Number of MOs        = 138
	Number of active MOs = 136
	AO-Basis             = NONE
	Semicanonical        = false
	Reference            = UHF
	Print Level          = 1

	IRREP	# MOs	# FZDC	# DOCC	# SOCC	# VIRT	# FZVR
	-----	-----	------	------	------	------	------
	 A1	   54	    2	    3	    1	    48	    0
	 A2	   17	    0	    0	    0	    17	    0
	 B1	   29	    0	    1	    1	    27	    0
	 B2	   38	    0	    2	    0	    36	    0
	Transforming integrals...
	IWL integrals will be deleted.
	(OO|OO)...
	Presorting SO-basis two-electron integrals.
	Sorting File: SO Ints (nn|nn) nbuckets = 1
	Transforming the one-electron integrals and constructing Fock matrices
	Starting AA/AB first half-transformation.
	Sorting AA/AB half-transformed integrals.
	Starting BB first half-transformation.
	Sorting BB half-transformed integrals.
	First half integral transformation complete.
	Starting AA second half-transformation.
	Starting AB second half-transformation.
	Starting BB second half-transformation.
	Two-electron integral transformation complete.
	(OO|OV)...
	Starting AA second half-transformation.
	Starting AB second half-transformation.
	Starting BB second half-transformation.
	Two-electron integral transformation complete.
	(OO|VV)...
	Starting AA second half-transformation.
	Starting AB second half-transformation.
	Starting BB second half-transformation.
	Two-electron integral transformation complete.
	(OV|OO)...
	Starting AA/AB first half-transformation.
	Sorting AA/AB half-transformed integrals.
	Starting BB first half-transformation.
	Sorting BB half-transformed integrals.
	First half integral transformation complete.
	Starting AA second half-transformation.
	Starting AB second half-transformation.
	Starting BB second half-transformation.
	Two-electron integral transformation complete.
	(OV|OV)...
	Starting AA second half-transformation.
	Starting AB second half-transformation.
	Starting BB second half-transformation.
	Two-electron integral transformation complete.
	(OV|VV)...
	Starting AA second half-transformation.
	Starting AB second half-transformation.
	Starting BB second half-transformation.
	Two-electron integral transformation complete.
	(VV|OO)...
	Starting AA/AB first half-transformation.
	Sorting AA/AB half-transformed integrals.
	Starting BB first half-transformation.
	Sorting BB half-transformed integrals.
	First half integral transformation complete.
	Starting AA second half-transformation.
	Starting AB second half-transformation.
	Starting BB second half-transformation.
	Two-electron integral transformation complete.
	(VV|OV)...
	Starting AA second half-transformation.
	Starting AB second half-transformation.
	Starting BB second half-transformation.
	Two-electron integral transformation complete.
	(VV|VV)...
	Starting AA second half-transformation.
	Starting AB second half-transformation.
	Starting BB second half-transformation.
	Two-electron integral transformation complete.
	Frozen core energy     =   -126.41254249986522

	Size of irrep 0 of <AB|CD> integrals:      5.040 (MW) /     40.320 (MB)
	Size of irrep 1 of <AB|CD> integrals:      3.197 (MW) /     25.576 (MB)
	Size of irrep 2 of <AB|CD> integrals:      3.640 (MW) /     29.124 (MB)
	Size of irrep 3 of <AB|CD> integrals:      4.783 (MW) /     38.264 (MB)
	Total:                                    16.660 (MW) /    133.283 (MB)

	Size of irrep 0 of <ab|cd> integrals:      5.382 (MW) /     43.059 (MB)
	Size of irrep 1 of <ab|cd> integrals:      3.389 (MW) /     27.114 (MB)
	Size of irrep 2 of <ab|cd> integrals:      3.936 (MW) /     31.490 (MB)
	Size of irrep 3 of <ab|cd> integrals:      5.018 (MW) /     40.141 (MB)
	Total:                                    17.726 (MW) /    141.804 (MB)

	Size of irrep 0 of <Ab|Cd> integrals:     22.024 (MW) /    176.194 (MB)
	Size of irrep 1 of <Ab|Cd> integrals:     13.170 (MW) /    105.357 (MB)
	Size of irrep 2 of <Ab|Cd> integrals:     15.140 (MW) /    121.119 (MB)
	Size of irrep 3 of <Ab|Cd> integrals:     19.598 (MW) /    156.787 (MB)
	Total:                                    69.932 (MW) /    559.457 (MB)

	Size of irrep 0 of <IA|BC> integrals:      1.469 (MW) /     11.748 (MB)
	Size of irrep 1 of <IA|BC> integrals:      0.694 (MW) /      5.550 (MB)
	Size of irrep 2 of <IA|BC> integrals:      0.908 (MW) /      7.266 (MB)
	Size of irrep 3 of <IA|BC> integrals:      1.198 (MW) /      9.588 (MB)
	Total:                                     4.269 (MW) /     34.152 (MB)

	Size of irrep 0 of <ia|bc> integrals:      1.178 (MW) /      9.426 (MB)
	Size of irrep 1 of <ia|bc> integrals:      0.527 (MW) /      4.212 (MB)
	Size of irrep 2 of <ia|bc> integrals:      0.663 (MW) /      5.301 (MB)
	Size of irrep 3 of <ia|bc> integrals:      0.999 (MW) /      7.992 (MB)
	Total:                                     3.366 (MW) /     26.931 (MB)

	Size of irrep 0 of <Ia|Bc> integrals:      1.521 (MW) /     12.164 (MB)
	Size of irrep 1 of <Ia|Bc> integrals:      0.711 (MW) /      5.690 (MB)
	Size of irrep 2 of <Ia|Bc> integrals:      0.949 (MW) /      7.595 (MB)
	Size of irrep 3 of <Ia|Bc> integrals:      1.222 (MW) /      9.775 (MB)
	Total:                                     4.403 (MW) /     35.225 (MB)

	Size of irrep 0 of <iA|bC> integrals:      1.140 (MW) /      9.123 (MB)
	Size of irrep 1 of <iA|bC> integrals:      0.512 (MW) /      4.094 (MB)
	Size of irrep 2 of <iA|bC> integrals:      0.634 (MW) /      5.074 (MB)
	Size of irrep 3 of <iA|bC> integrals:      0.978 (MW) /      7.827 (MB)
	Total:                                     3.265 (MW) /     26.118 (MB)

	Size of irrep 0 of tIjAb amplitudes:       0.084 (MW) /      0.676 (MB)
	Size of irrep 1 of tIjAb amplitudes:       0.022 (MW) /      0.174 (MB)
	Size of irrep 2 of tIjAb amplitudes:       0.039 (MW) /      0.311 (MB)
	Size of irrep 3 of tIjAb amplitudes:       0.062 (MW) /      0.496 (MB)
	Total:                                     0.207 (MW) /      1.657 (MB)

	Nuclear Rep. energy          =     23.92707296374727
	SCF energy                   =   -150.87345282292992
	One-electron energy          =    -85.52861104218705
	Two-electron (AA) energy     =     10.38464850752432
	Two-electron (BB) energy     =      5.47662050459775
	Two-electron (AB) energy     =     21.27935874325138
	Two-electron energy          =     37.14062775537346
	Reference energy             =   -150.87345282293154

*** tstop() called on c2-1.compute.lan at Mon Mar  8 17:26:36 2021
Module time:
	user time   =      87.01 seconds =       1.45 minutes
	system time =      12.45 seconds =       0.21 minutes
	total time  =         20 seconds =       0.33 minutes
Total time:
	user time   =     137.65 seconds =       2.29 minutes
	system time =      14.86 seconds =       0.25 minutes
	total time  =         27 seconds =       0.45 minutes
            **************************
            *                        *
            *        CCENERGY        *
            *                        *
            **************************

    Nuclear Rep. energy (wfn)     =   23.927072963747275
    SCF energy          (wfn)     = -150.873452822929920
    Reference energy    (file100) = -150.873452822931540

    Input parameters:
    -----------------
    Wave function   =     CCSD_T
    Reference wfn   =     UHF
    Brueckner       =     No
    Memory (Mbytes) =     4000.0
    Maxiter         =     50
    R_Convergence   =     1.0e-10
    E_Convergence   =     1.0e-10
    Restart         =     Yes
    DIIS            =     Yes
    AO Basis        =     NONE
    ABCD            =     NEW
    Cache Level     =     2
    Cache Type      =     LRU
    Print Level     =     1
    Num. of threads =     12
    # Amps to Print =     10
    Print MP2 Amps? =     No
    Analyze T2 Amps =     No
    Print Pair Ener =     No
    Local CC        =     No
    SCS-MP2         =     False
    SCSN-MP2        =     False
    SCS-CCSD        =     False

MP2 correlation energy -0.4163309848369260
                Solving CC Amplitude Equations
                ------------------------------
  Iter             Energy              RMS        T1Diag      D1Diag    New D1Diag    D2Diag
  ----     ---------------------    ---------   ----------  ----------  ----------   --------
     0        -0.416330984836926    0.000e+00    0.000000    0.000000    0.000000    0.000000
     1        -0.427107369917267    5.703e-02    0.010598    0.000000    0.000000    0.000000
     2        -0.435207944333327    1.705e-02    0.011096    0.000000    0.000000    0.000000
     3        -0.437362442380388    8.805e-03    0.013028    0.000000    0.000000    0.000000
     4        -0.437235684382803    2.696e-03    0.013443    0.000000    0.000000    0.000000
     5        -0.437226224051569    1.406e-03    0.013641    0.000000    0.000000    0.000000
     6        -0.437255542469298    5.318e-04    0.013669    0.000000    0.000000    0.000000
     7        -0.437258529815555    2.161e-04    0.013664    0.000000    0.000000    0.000000
     8        -0.437259451876438    6.687e-05    0.013659    0.000000    0.000000    0.000000
     9        -0.437260144243629    2.403e-05    0.013658    0.000000    0.000000    0.000000
    10        -0.437259235684160    9.243e-06    0.013658    0.000000    0.000000    0.000000
    11        -0.437259401486590    4.054e-06    0.013658    0.000000    0.000000    0.000000
    12        -0.437259361772559    1.479e-06    0.013658    0.000000    0.000000    0.000000
    13        -0.437259370168539    7.490e-07    0.013658    0.000000    0.000000    0.000000
    14        -0.437259393442429    3.150e-07    0.013658    0.000000    0.000000    0.000000
    15        -0.437259395049114    1.140e-07    0.013658    0.000000    0.000000    0.000000
    16        -0.437259395680552    5.213e-08    0.013658    0.000000    0.000000    0.000000
    17        -0.437259396236240    1.987e-08    0.013658    0.000000    0.000000    0.000000
    18        -0.437259396076327    1.064e-08    0.013658    0.000000    0.000000    0.000000

      * MP2 total energy                      = -151.289783807768458
      * CCSD total energy                     = -151.310712218736512
      * CCSD(T) total energy                     = -151.323014548746443
*** Psi4 exiting successfully. Buy a developer a beer!
