                               Psi4 1.3.2 release

  ==> Input File <==

--------------------------------------------------------------------------
memory 4 GB

molecule  {
0 3
O   -1.524700329700   -0.028676944100    0.000000000000
H   -0.562096927500   -0.013032327000    0.000000000000
H   -1.780153105900    0.897967303800    0.000000000000
O    1.672283375400   -0.027082004500    0.000000000000
}
set {
basis aug-cc-pvtz
reference uhf
e_convergence 10
scf_type pk
freeze_core true
}

set ccenergy {
e_convergence 10
r_convergence 10
}

e = energy('ccsd(t)')

print_out('Stephenergy {}'.format(e))

--------------------------------------------------------------------------

    Molecular point group: cs

    Geometry (in Angstrom), charge = 0, multiplicity = 3:

       Center              X                  Y                   Z               Mass
    ------------   -----------------  -----------------  -----------------  -----------------
         O           -1.524700329696    -0.028676944082     0.000000000000    15.994914619570
         H           -0.562096927496    -0.013032326982     0.000000000000     1.007825032230
         H           -1.780153105896     0.897967303818     0.000000000000     1.007825032230
         O            1.672283375404    -0.027082004482     0.000000000000    15.994914619570

  Charge       = 0
  Multiplicity = 3
  Basis Set: AUG-CC-PVTZ
    Blend: AUG-CC-PVTZ

    Orbital Energies [Eh]
    ---------------------

    Alpha Occupied:

       1Ap   -20.734802     2Ap   -20.558498     3Ap    -1.444098
       4Ap    -1.342787     5Ap    -0.734647     1App   -0.734505
       6Ap    -0.709987     7Ap    -0.636805     8Ap    -0.574478
       2App   -0.501670

    Alpha Virtual:

       9Ap     0.034585    10Ap     0.053258    11Ap     0.127579
       3App    0.131536    12Ap     0.148057    13Ap     0.161206
      14Ap     0.183385     4App    0.186141    15Ap     0.211307
      16Ap     0.241486    17Ap     0.271947     5App    0.282370
      18Ap     0.293187     6App    0.323384    19Ap     0.372005
      20Ap     0.392395    21Ap     0.460019    22Ap     0.558773
       7App    0.600120    23Ap     0.608601    24Ap     0.644237
      25Ap     0.668317     8App    0.712019    26Ap     0.712289
       9App    0.734684    10App    0.747024    27Ap     0.765433
      28Ap     0.796595    11App    0.824716    29Ap     0.851405
      30Ap     0.865328    12App    0.882771    31Ap     0.922722
      13App    0.942253    32Ap     0.943725    33Ap     0.956602
      14App    0.983559    34Ap     0.986658    35Ap     1.043278
      36Ap     1.127808    37Ap     1.168746    15App    1.177800
      38Ap     1.193726    16App    1.257933    39Ap     1.272146
      40Ap     1.322175    17App    1.528414    41Ap     1.555986
      18App    1.601134    42Ap     1.687680    43Ap     1.817537
      44Ap     1.824822    19App    1.975690    45Ap     1.975731
      46Ap     1.997054    20App    2.011135    47Ap     2.017930
      21App    2.047675    48Ap     2.060101    22App    2.121584
      49Ap     2.162988    50Ap     2.164397    23App    2.209580
      24App    2.294115    51Ap     2.298616    52Ap     2.329356
      53Ap     2.413681    25App    2.447786    54Ap     2.460775
      26App    2.522312    55Ap     2.534829    56Ap     2.629049
      57Ap     2.667774    27App    2.728943    58Ap     2.750202
      59Ap     2.866451    60Ap     2.943702    28App    2.946015
      61Ap     3.698733    62Ap     3.891562    29App    4.034624
      30App    4.058212    63Ap     4.076441    31App    4.171800
      64Ap     4.201903    65Ap     4.272809    32App    4.301289
      66Ap     4.376575    33App    4.393411    67Ap     4.437435
      34App    4.440014    68Ap     4.575616    69Ap     4.782513
      70Ap     4.960099    35App    5.156509    71Ap     5.179608
      72Ap     5.308855    73Ap     5.374484    36App    5.526886
      74Ap     5.692983    75Ap     6.196128    37App    6.310357
      76Ap     6.310399    38App    6.372459    77Ap     6.375208
      39App    6.518469    78Ap     6.526648    79Ap     6.554965
      80Ap     6.632954    40App    6.724294    81Ap     6.812358
      41App    6.818453    82Ap     6.912064    42App    6.933486
      83Ap     6.966213    84Ap     7.049231    43App    7.147499
      44App    7.275096    85Ap     7.325980    45App    7.327152
      86Ap     7.358903    46App    7.441094    87Ap     7.659956
      88Ap     7.948743    89Ap     7.965412    90Ap     8.810813
      91Ap     9.376997    92Ap    16.537587

    Beta Occupied:

       1Ap   -20.656024     2Ap   -20.558634     3Ap    -1.343376
       4Ap    -1.101642     5Ap    -0.709049     6Ap    -0.580876
       7Ap    -0.542097     1App   -0.501724

    Beta Virtual:

       8Ap     0.034223     9Ap     0.046101     2App    0.047727
      10Ap     0.057690    11Ap     0.144161    12Ap     0.150991
       3App    0.160372    13Ap     0.179848    14Ap     0.210197
      15Ap     0.217763     4App    0.225957    16Ap     0.251099
      17Ap     0.273941     5App    0.282707    18Ap     0.295450
       6App    0.327008    19Ap     0.375782    20Ap     0.402937
      21Ap     0.460735    22Ap     0.561660     7App    0.632437
      23Ap     0.638921    24Ap     0.647306    25Ap     0.671310
      26Ap     0.712991     8App    0.725816     9App    0.735831
      10App    0.748439    27Ap     0.783953    28Ap     0.808806
      29Ap     0.857482    11App    0.867238    30Ap     0.918134
      12App    0.935530    31Ap     0.943421    13App    0.949725
      32Ap     0.953769    33Ap     0.974493    34Ap     1.015670
      14App    1.024958    35Ap     1.047213    36Ap     1.152864
      37Ap     1.177022    15App    1.181059    38Ap     1.219848
      16App    1.269051    39Ap     1.274221    40Ap     1.333036
      17App    1.529252    41Ap     1.561847    18App    1.602726
      42Ap     1.714911    43Ap     1.822506    44Ap     1.831883
      45Ap     2.004683    19App    2.013799    46Ap     2.014015
      20App    2.052322    47Ap     2.065234    21App    2.169163
      22App    2.179478    48Ap     2.179718    49Ap     2.203151
      50Ap     2.225255    23App    2.247517    24App    2.296003
      51Ap     2.315305    52Ap     2.343301    53Ap     2.421303
      25App    2.450257    54Ap     2.461610    26App    2.530909
      55Ap     2.542170    56Ap     2.635106    57Ap     2.678908
      27App    2.730066    58Ap     2.756724    59Ap     2.871156
      60Ap     2.946407    28App    2.946703    61Ap     3.699177
      62Ap     3.894314    29App    4.034829    30App    4.145708
      63Ap     4.182017    64Ap     4.243561    31App    4.254242
      65Ap     4.294487    32App    4.301613    66Ap     4.391857
      33App    4.393599    34App    4.441573    67Ap     4.467852
      68Ap     4.576559    69Ap     4.783929    70Ap     4.962335
      35App    5.156493    71Ap     5.180123    72Ap     5.309069
      73Ap     5.375523    36App    5.526967    74Ap     5.693618
      75Ap     6.196589    37App    6.419318    76Ap     6.419345
      38App    6.447887    77Ap     6.450743    78Ap     6.533299
      39App    6.573462    79Ap     6.604354    80Ap     6.679166
      40App    6.728537    81Ap     6.913980    41App    7.004577
      82Ap     7.005529    42App    7.041744    83Ap     7.071056
      84Ap     7.129611    43App    7.149778    44App    7.275535
      85Ap     7.326085    45App    7.328010    86Ap     7.359396
      46App    7.441534    87Ap     7.661316    88Ap     7.949089
      89Ap     7.965571    90Ap     8.813255    91Ap     9.451582
      92Ap    16.538149

    Final Occupation by Irrep:
             Ap   App
    DOCC [     7,    1 ]
    SOCC [     1,    1 ]

  @UHF Final Energy:  -150.87444930412920

   => Energetics <=

    Nuclear Repulsion Energy =             22.8220574345069167
    One-Electron Energy =                -253.4273142272907080
    Two-Electron Energy =                  79.7308074886545910
    Total Energy =                       -150.8744493041292003

  UHF NO Occupations:
  HONO-2 :    7 Ap 1.9970298
  HONO-1 :    8 Ap 1.0000000
  HONO-0 :    2App 1.0000000
  LUNO+0 :    9 Ap 0.0029702
  LUNO+1 :   10 Ap 0.0017135
  LUNO+2 :   11 Ap 0.0000024
  LUNO+3 :   12 Ap 0.0000018

Computation Completed

Properties will be evaluated at   0.000000,   0.000000,   0.000000 [a0]

Properties computed using the SCF density matrix

  Nuclear Dipole Moment: [e a0]
     X:    -2.1951      Y:     0.8293      Z:     0.0000

  Electronic Dipole Moment: [e a0]
     X:     2.7588      Y:    -0.2131      Z:     0.0000

  Dipole Moment: [e a0]
     X:     0.5637      Y:     0.6163      Z:     0.0000     Total:     0.8352

  Dipole Moment: [D]
     X:     1.4329      Y:     1.5664      Z:     0.0000     Total:     2.1229

*** tstop() called on c1-9.compute.lan at Tue Mar  9 14:51:37 2021
Module time:
	user time   =      67.60 seconds =       1.13 minutes
	system time =       4.45 seconds =       0.07 minutes
	total time  =          8 seconds =       0.13 minutes
Total time:
	user time   =      67.60 seconds =       1.13 minutes
	system time =       4.45 seconds =       0.07 minutes
	total time  =          8 seconds =       0.13 minutes
 MINTS: Wrapper to libmints.
   by Justin Turney

   Calculation information:
      Number of threads:                12
      Number of atoms:                   4
      Number of AO shells:              46
      Number of SO shells:              46
      Number of primitives:             82
      Number of atomic orbitals:       160
      Number of basis functions:       138

      Number of irreps:                  2
      Integral cutoff                 0.00e+00
      Number of functions per irrep: [  92   46 ]

 OEINTS: Overlap, kinetic, potential, dipole, and quadrupole integrals
         stored in file 35.

      Computing two-electron integrals...done
      Computed 22938688 non-zero two-electron integrals.
        Stored in file 33.

*** tstart() called on c1-9.compute.lan
*** at Tue Mar  9 14:51:41 2021

	Wfn Parameters:
	--------------------
	Wavefunction         = CCSD_T
	Number of irreps     = 2
	Number of MOs        = 138
	Number of active MOs = 136
	AO-Basis             = NONE
	Semicanonical        = false
	Reference            = UHF
	Print Level          = 1

	IRREP	# MOs	# FZDC	# DOCC	# SOCC	# VIRT	# FZVR
	-----	-----	------	------	------	------	------
	 Ap	   92	    2	    5	    1	    84	    0
	 App	   46	    0	    1	    1	    44	    0
	Transforming integrals...
	IWL integrals will be deleted.
	(OO|OO)...
	Presorting SO-basis two-electron integrals.
	Sorting File: SO Ints (nn|nn) nbuckets = 1
	Transforming the one-electron integrals and constructing Fock matrices
	Starting AA/AB first half-transformation.
	Sorting AA/AB half-transformed integrals.
	Starting BB first half-transformation.
	Sorting BB half-transformed integrals.
	First half integral transformation complete.
	Starting AA second half-transformation.
	Starting AB second half-transformation.
	Starting BB second half-transformation.
	Two-electron integral transformation complete.
	(OO|OV)...
	Starting AA second half-transformation.
	Starting AB second half-transformation.
	Starting BB second half-transformation.
	Two-electron integral transformation complete.
	(OO|VV)...
	Starting AA second half-transformation.
	Starting AB second half-transformation.
	Starting BB second half-transformation.
	Two-electron integral transformation complete.
	(OV|OO)...
	Starting AA/AB first half-transformation.
	Sorting AA/AB half-transformed integrals.
	Starting BB first half-transformation.
	Sorting BB half-transformed integrals.
	First half integral transformation complete.
	Starting AA second half-transformation.
	Starting AB second half-transformation.
	Starting BB second half-transformation.
	Two-electron integral transformation complete.
	(OV|OV)...
	Starting AA second half-transformation.
	Starting AB second half-transformation.
	Starting BB second half-transformation.
	Two-electron integral transformation complete.
	(OV|VV)...
	Starting AA second half-transformation.
	Starting AB second half-transformation.
	Starting BB second half-transformation.
	Two-electron integral transformation complete.
	(VV|OO)...
	Starting AA/AB first half-transformation.
	Sorting AA/AB half-transformed integrals.
	Starting BB first half-transformation.
	Sorting BB half-transformed integrals.
	First half integral transformation complete.
	Starting AA second half-transformation.
	Starting AB second half-transformation.
	Starting BB second half-transformation.
	Two-electron integral transformation complete.
	(VV|OV)...
	Starting AA second half-transformation.
	Starting AB second half-transformation.
	Starting BB second half-transformation.
	Two-electron integral transformation complete.
	(VV|VV)...
	Starting AA second half-transformation.
	Starting AB second half-transformation.
	Starting BB second half-transformation.
	Two-electron integral transformation complete.
	Frozen core energy     =   -125.81579459933133

	Size of irrep 0 of <AB|CD> integrals:     19.643 (MW) /    157.141 (MB)
	Size of irrep 1 of <AB|CD> integrals:     13.660 (MW) /    109.283 (MB)
	Total:                                    33.303 (MW) /    266.424 (MB)

	Size of irrep 0 of <ab|cd> integrals:     20.794 (MW) /    166.349 (MB)
	Size of irrep 1 of <ab|cd> integrals:     14.631 (MW) /    117.045 (MB)
	Total:                                    35.424 (MW) /    283.394 (MB)

	Size of irrep 0 of <Ab|Cd> integrals:     83.174 (MW) /    665.395 (MB)
	Size of irrep 1 of <Ab|Cd> integrals:     56.550 (MW) /    452.403 (MB)
	Total:                                   139.725 (MW) /   1117.798 (MB)

	Size of irrep 0 of <IA|BC> integrals:      5.323 (MW) /     42.586 (MB)
	Size of irrep 1 of <IA|BC> integrals:      3.193 (MW) /     25.547 (MB)
	Total:                                     8.517 (MW) /     68.133 (MB)

	Size of irrep 0 of <ia|bc> integrals:      4.348 (MW) /     34.780 (MB)
	Size of irrep 1 of <ia|bc> integrals:      2.372 (MW) /     18.972 (MB)
	Total:                                     6.719 (MW) /     53.752 (MB)

	Size of irrep 0 of <Ia|Bc> integrals:      5.472 (MW) /     43.776 (MB)
	Size of irrep 1 of <Ia|Bc> integrals:      3.309 (MW) /     26.470 (MB)
	Total:                                     8.781 (MW) /     70.246 (MB)

	Size of irrep 0 of <iA|bC> integrals:      4.232 (MW) /     33.853 (MB)
	Size of irrep 1 of <iA|bC> integrals:      2.286 (MW) /     18.289 (MB)
	Total:                                     6.518 (MW) /     52.142 (MB)

	Size of irrep 0 of tIjAb amplitudes:       0.292 (MW) /      2.335 (MB)
	Size of irrep 1 of tIjAb amplitudes:       0.120 (MW) /      0.963 (MB)
	Total:                                     0.412 (MW) /      3.297 (MB)

	Nuclear Rep. energy          =     22.82205743450692
	SCF energy                   =   -150.87444930412920
	One-electron energy          =    -84.30368283326411
	Two-electron (AA) energy     =     10.11819558892302
	Two-electron (BB) energy     =      5.38394647966829
	Two-electron (AB) energy     =     20.92082862536622
	Two-electron energy          =     36.42297069395753
	Reference energy             =   -150.87444930413099

*** tstop() called on c1-9.compute.lan at Tue Mar  9 14:52:38 2021
Module time:
	user time   =     164.59 seconds =       2.74 minutes
	system time =      38.50 seconds =       0.64 minutes
	total time  =         57 seconds =       0.95 minutes
Total time:
	user time   =     238.64 seconds =       3.98 minutes
	system time =      43.87 seconds =       0.73 minutes
	total time  =         69 seconds =       1.15 minutes
            **************************
            *                        *
            *        CCENERGY        *
            *                        *
            **************************

    Nuclear Rep. energy (wfn)     =   22.822057434506917
    SCF energy          (wfn)     = -150.874449304129200
    Reference energy    (file100) = -150.874449304130991

    Input parameters:
    -----------------
    Wave function   =     CCSD_T
    Reference wfn   =     UHF
    Brueckner       =     No
    Memory (Mbytes) =     4000.0
    Maxiter         =     50
    R_Convergence   =     1.0e-10
    E_Convergence   =     1.0e-10
    Restart         =     Yes
    DIIS            =     Yes
    AO Basis        =     NONE
    ABCD            =     NEW
    Cache Level     =     2
    Cache Type      =     LRU
    Print Level     =     1
    Num. of threads =     12
    # Amps to Print =     10
    Print MP2 Amps? =     No
    Analyze T2 Amps =     No
    Print Pair Ener =     No
    Local CC        =     No
    SCS-MP2         =     False
    SCSN-MP2        =     False
    SCS-CCSD        =     False

MP2 correlation energy -0.4165460751328656
                Solving CC Amplitude Equations
                ------------------------------
  Iter             Energy              RMS        T1Diag      D1Diag    New D1Diag    D2Diag
  ----     ---------------------    ---------   ----------  ----------  ----------   --------
     0        -0.416546075132866    0.000e+00    0.000000    0.000000    0.000000    0.000000
     1        -0.427285155226762    5.682e-02    0.010533    0.000000    0.000000    0.000000
     2        -0.435375604608636    1.687e-02    0.011022    0.000000    0.000000    0.000000
     3        -0.437490407793364    8.562e-03    0.012890    0.000000    0.000000    0.000000
     4        -0.437365307459954    2.533e-03    0.013256    0.000000    0.000000    0.000000
     5        -0.437350381046756    1.323e-03    0.013413    0.000000    0.000000    0.000000
     6        -0.437377610008260    5.152e-04    0.013435    0.000000    0.000000    0.000000
     7        -0.437382403761003    2.656e-04    0.013430    0.000000    0.000000    0.000000
     8        -0.437382977007738    9.531e-05    0.013425    0.000000    0.000000    0.000000
     9        -0.437384374710595    6.810e-05    0.013426    0.000000    0.000000    0.000000
    10        -0.437382841470866    5.696e-05    0.013427    0.000000    0.000000    0.000000
    11        -0.437382964419484    5.383e-05    0.013428    0.000000    0.000000    0.000000
    12        -0.437382769284617    5.216e-05    0.013430    0.000000    0.000000    0.000000
    13        -0.437382753075878    5.123e-05    0.013432    0.000000    0.000000    0.000000
    14        -0.437383642367569    4.997e-05    0.013441    0.000000    0.000000    0.000000
    15        -0.437383966271924    4.574e-05    0.013485    0.000000    0.000000    0.000000
    16        -0.437383741735676    3.332e-05    0.013601    0.000000    0.000000    0.000000
    17        -0.437383455721066    1.704e-05    0.013673    0.000000    0.000000    0.000000
    18        -0.437383312468235    8.012e-06    0.013694    0.000000    0.000000    0.000000
    19        -0.437383558536967    3.519e-06    0.013699    0.000000    0.000000    0.000000
    20        -0.437383676484452    1.551e-06    0.013700    0.000000    0.000000    0.000000
    21        -0.437383683050225    6.144e-07    0.013700    0.000000    0.000000    0.000000
    22        -0.437383683967025    2.760e-07    0.013700    0.000000    0.000000    0.000000
    23        -0.437383683334202    1.380e-07    0.013701    0.000000    0.000000    0.000000
    24        -0.437383682615205    5.265e-08    0.013701    0.000000    0.000000    0.000000
    25        -0.437383683502703    2.604e-08    0.013701    0.000000    0.000000    0.000000
    26        -0.437383683925761    1.798e-08    0.013701    0.000000    0.000000    0.000000
    27        -0.437383684048332    1.628e-08    0.013701    0.000000    0.000000    0.000000
    28        -0.437383684027047    1.568e-08    0.013701    0.000000    0.000000    0.000000
    29        -0.437383683938294    1.527e-08    0.013701    0.000000    0.000000    0.000000
    30        -0.437383683761552    1.476e-08    0.013701    0.000000    0.000000    0.000000
    31        -0.437383683795289    1.324e-08    0.013701    0.000000    0.000000    0.000000
    32        -0.437383684029066    8.386e-09    0.013701    0.000000    0.000000    0.000000
    33        -0.437383684112887    3.869e-09    0.013701    0.000000    0.000000    0.000000
    34        -0.437383684165063    1.654e-09    0.013701    0.000000    0.000000    0.000000
    35        -0.437383684171506    6.537e-10    0.013701    0.000000    0.000000    0.000000
    36        -0.437383684170438    2.613e-10    0.013701    0.000000    0.000000    0.000000

      * MP2 total energy                      = -151.290995379263848
      * CCSD total energy                     = -151.311832988300552
      * CCSD(T) total energy                     = -151.324182984119176
*** Psi4 exiting successfully. Buy a developer a beer!
