                               Psi4 1.3.2 release

  ==> Input File <==

--------------------------------------------------------------------------
memory 4 GB

molecule  {
0 3
O    0.000000000000    0.000000000000    1.252538719011
H    0.000000000000   -0.758665699200    1.845111690229
H   -0.000000000000    0.758665699200    1.845111690229
O    0.000000000000    0.000000000000   -1.485056340130
}
set {
basis aug-cc-pvtz
reference uhf
e_convergence 10
scf_type pk
freeze_core true
}

set ccenergy {
e_convergence 10
r_convergence 10
}

e = energy('ccsd(t)')

print_out('Stephenergy {}'.format(e))

--------------------------------------------------------------------------

    Molecular point group: c2v

    Geometry (in Angstrom), charge = 0, multiplicity = 3:

       Center              X                  Y                   Z               Mass
    ------------   -----------------  -----------------  -----------------  -----------------
         O            0.000000000000     0.000000000000     1.252538719011    15.994914619570
         H            0.000000000000    -0.758665699200     1.845111690229     1.007825032230
         H           -0.000000000000     0.758665699200     1.845111690229     1.007825032230
         O            0.000000000000     0.000000000000    -1.485056340130    15.994914619570

  Charge       = 0
  Multiplicity = 3
  Basis Set: AUG-CC-PVTZ
    Blend: AUG-CC-PVTZ

    Orbital Energies [Eh]
    ---------------------

    Alpha Occupied:

       1A1   -20.683773     2A1   -20.571654     3A1    -1.393336
       4A1    -1.355181     1B2    -0.717558     5A1    -0.688084
       1B1    -0.684574     6A1    -0.586720     2B2    -0.585581
       2B1    -0.514180

    Alpha Virtual:

       7A1     0.029518     3B2     0.047680     8A1     0.118143
       3B1     0.154417     9A1     0.159320     4B2     0.180255
       5B2     0.187493     4B1     0.192936    10A1     0.198370
       1A2     0.263782     6B2     0.264419    11A1     0.265910
      12A1     0.314323     5B1     0.326840    13A1     0.375869
       7B2     0.380546    14A1     0.449802     8B2     0.464042
       9B2     0.599916     6B1     0.644715    15A1     0.648177
       2A2     0.658250    16A1     0.667172    17A1     0.701284
       3A2     0.722197    10B2     0.725231     7B1     0.769389
      18A1     0.792276    19A1     0.821090     8B1     0.837942
      20A1     0.860561     9B1     0.901237    11B2     0.918284
       4A2     0.925237    12B2     0.947298    13B2     0.982540
      21A1     0.991565    10B1     1.017391    22A1     1.046734
      14B2     1.051540    11B1     1.124256     5A2     1.177086
      23A1     1.192391    15B2     1.202456    16B2     1.332233
      24A1     1.335533    25A1     1.456538     6A2     1.506747
      12B1     1.594212    26A1     1.669179    27A1     1.813461
      17B2     1.824802    18B2     1.973934    28A1     2.041240
      13B1     2.048798    19B2     2.054709     7A2     2.059179
      14B1     2.059472    29A1     2.079458    30A1     2.115249
       8A2     2.119925    20B2     2.139817    31A1     2.141951
      15B1     2.150057    32A1     2.254414    21B2     2.277030
      16B1     2.302180     9A2     2.311175    17B1     2.441080
      33A1     2.477873    22B2     2.483345    34A1     2.496725
      35A1     2.697934    18B1     2.717411    23B2     2.721280
      36A1     2.849350    24B2     2.857604    10A2     2.879433
      25B2     3.693065    37A1     3.748766    11A2     4.013903
      19B1     4.078018    20B1     4.100486    38A1     4.139760
      26B2     4.185575    27B2     4.283969    21B1     4.284808
      39A1     4.358877    12A2     4.381895    40A1     4.426693
      22B1     4.455415    28B2     4.516697    41A1     4.795880
      29B2     4.839146    13A2     5.139983    30B2     5.143674
      31B2     5.241946    42A1     5.336424    23B1     5.514195
      43A1     5.681427    44A1     6.202126    24B1     6.391681
      14A2     6.411614    45A1     6.412490    32B2     6.424773
      25B1     6.436492    33B2     6.494119    46A1     6.546169
      34B2     6.580476    26B1     6.720190    27B1     6.904883
      47A1     6.909426    15A2     6.925440    48A1     6.949674
      35B2     6.988077    49A1     7.047002    28B1     7.132648
      29B1     7.279188    36B2     7.299195    16A2     7.304457
      17A2     7.351136    50A1     7.440144    51A1     7.539399
      52A1     7.902551    37B2     7.914942    38B2     8.803090
      53A1     8.898390    54A1    15.741392

    Beta Occupied:

       1A1   -20.604883     2A1   -20.571135     3A1    -1.354438
       4A1    -1.050488     1B2    -0.717186     5A1    -0.588846
       1B1    -0.513439     2B2    -0.494971

    Beta Virtual:

       6A1     0.029356     3B2     0.047763     2B1     0.087024
       7A1     0.092156     8A1     0.141473     9A1     0.166973
       3B1     0.170912     4B2     0.180864     5B2     0.191125
      10A1     0.225795     4B1     0.253649     1A2     0.263784
       6B2     0.264852    11A1     0.288955    12A1     0.316681
       5B1     0.328113     7B2     0.380715    13A1     0.386631
      14A1     0.450904     8B2     0.464258     9B2     0.601581
      15A1     0.660565     6B1     0.668564     2A2     0.672569
      16A1     0.674054    17A1     0.718571     3A2     0.722720
      10B2     0.737381     7B1     0.781035    18A1     0.807002
       8B1     0.847111    19A1     0.852167     4A2     0.925665
      20A1     0.928294    11B2     0.936407    12B2     0.953807
      13B2     0.986426     9B1     0.988075    21A1     0.998674
      14B2     1.052702    22A1     1.053390    10B1     1.062117
      11B1     1.141748     5A2     1.177296    23A1     1.193841
      15B2     1.205167    16B2     1.334701    24A1     1.392111
      25A1     1.493483     6A2     1.507202    12B1     1.596222
      26A1     1.700835    27A1     1.818962    17B2     1.825142
      18B2     1.975419    28A1     2.070623    13B1     2.071387
      19B2     2.072100     7A2     2.083903    29A1     2.099519
      14B1     2.102066    30A1     2.154771    20B2     2.187644
       8A2     2.203015    31A1     2.210217    15B1     2.262236
       9A2     2.311308    32A1     2.313981    16B1     2.317021
      21B2     2.326769    17B1     2.449936    33A1     2.483763
      22B2     2.486195    34A1     2.531248    35A1     2.704574
      18B1     2.719272    23B2     2.722205    24B2     2.857728
      36A1     2.862330    10A2     2.879471    25B2     3.694020
      37A1     3.748903    11A2     4.013936    19B1     4.080296
      38A1     4.170764    26B2     4.220624    20B1     4.258647
      21B1     4.291439    27B2     4.295320    12A2     4.382013
      39A1     4.422574    22B1     4.460912    40A1     4.478357
      28B2     4.516790    41A1     4.807593    29B2     4.839323
      13A2     5.140068    30B2     5.143870    31B2     5.242451
      42A1     5.337095    23B1     5.514321    43A1     5.686518
      44A1     6.203698    24B1     6.486465    14A2     6.488438
      32B2     6.488479    45A1     6.495472    25B1     6.500742
      33B2     6.527591    34B2     6.610990    46A1     6.617779
      26B1     6.728404    47A1     6.969901    15A2     7.038984
      48A1     7.043068    27B1     7.087321    35B2     7.099898
      28B1     7.133176    49A1     7.173379    29B1     7.283344
      36B2     7.299411    16A2     7.304750    17A2     7.351607
      50A1     7.443017    51A1     7.540556    52A1     7.903214
      37B2     7.915332    38B2     8.803500    53A1     8.977378
      54A1    15.741752

    Final Occupation by Irrep:
             A1    A2    B1    B2
    DOCC [     5,    0,    1,    2 ]
    SOCC [     1,    0,    1,    0 ]

  @UHF Final Energy:  -150.87327763810006

   => Energetics <=

    Nuclear Repulsion Energy =             23.9941469442598105
    One-Electron Energy =                -256.0588236622789395
    Two-Electron Energy =                  81.1913990799190799
    Total Energy =                       -150.8732776381000633

  UHF NO Occupations:
  HONO-2 :    5 A1 1.9970475
  HONO-1 :    6 A1 1.0000000
  HONO-0 :    2 B1 1.0000000
  LUNO+0 :    7 A1 0.0029525
  LUNO+1 :    3 B2 0.0018007
  LUNO+2 :    8 A1 0.0000254
  LUNO+3 :    9 A1 0.0000024

Computation Completed

Properties will be evaluated at   0.000000,   0.000000,   0.000000 [a0]

Properties computed using the SCF density matrix

  Nuclear Dipole Moment: [e a0]
     X:     0.0000      Y:     0.0000      Z:     3.4584

  Electronic Dipole Moment: [e a0]
     X:     0.0000      Y:     0.0000      Z:    -2.6169

  Dipole Moment: [e a0]
     X:     0.0000      Y:     0.0000      Z:     0.8415     Total:     0.8415

  Dipole Moment: [D]
     X:     0.0000      Y:     0.0000      Z:     2.1388     Total:     2.1388

*** tstop() called on c2-18.compute.lan at Mon Mar  8 16:57:31 2021
Module time:
	user time   =      44.47 seconds =       0.74 minutes
	system time =       2.56 seconds =       0.04 minutes
	total time  =          6 seconds =       0.10 minutes
Total time:
	user time   =      44.47 seconds =       0.74 minutes
	system time =       2.56 seconds =       0.04 minutes
	total time  =          6 seconds =       0.10 minutes
 MINTS: Wrapper to libmints.
   by Justin Turney

   Calculation information:
      Number of threads:                12
      Number of atoms:                   4
      Number of AO shells:              46
      Number of SO shells:              37
      Number of primitives:             82
      Number of atomic orbitals:       160
      Number of basis functions:       138

      Number of irreps:                  4
      Integral cutoff                 0.00e+00
      Number of functions per irrep: [  54   17   29   38 ]

 OEINTS: Overlap, kinetic, potential, dipole, and quadrupole integrals
         stored in file 35.

      Computing two-electron integrals...done
      Computed 11333566 non-zero two-electron integrals.
        Stored in file 33.

*** tstart() called on c2-18.compute.lan
*** at Mon Mar  8 16:57:34 2021

	Wfn Parameters:
	--------------------
	Wavefunction         = CCSD_T
	Number of irreps     = 4
	Number of MOs        = 138
	Number of active MOs = 136
	AO-Basis             = NONE
	Semicanonical        = false
	Reference            = UHF
	Print Level          = 1

	IRREP	# MOs	# FZDC	# DOCC	# SOCC	# VIRT	# FZVR
	-----	-----	------	------	------	------	------
	 A1	   54	    2	    3	    1	    48	    0
	 A2	   17	    0	    0	    0	    17	    0
	 B1	   29	    0	    1	    1	    27	    0
	 B2	   38	    0	    2	    0	    36	    0
	Transforming integrals...
	IWL integrals will be deleted.
	(OO|OO)...
	Presorting SO-basis two-electron integrals.
	Sorting File: SO Ints (nn|nn) nbuckets = 1
	Transforming the one-electron integrals and constructing Fock matrices
	Starting AA/AB first half-transformation.
	Sorting AA/AB half-transformed integrals.
	Starting BB first half-transformation.
	Sorting BB half-transformed integrals.
	First half integral transformation complete.
	Starting AA second half-transformation.
	Starting AB second half-transformation.
	Starting BB second half-transformation.
	Two-electron integral transformation complete.
	(OO|OV)...
	Starting AA second half-transformation.
	Starting AB second half-transformation.
	Starting BB second half-transformation.
	Two-electron integral transformation complete.
	(OO|VV)...
	Starting AA second half-transformation.
	Starting AB second half-transformation.
	Starting BB second half-transformation.
	Two-electron integral transformation complete.
	(OV|OO)...
	Starting AA/AB first half-transformation.
	Sorting AA/AB half-transformed integrals.
	Starting BB first half-transformation.
	Sorting BB half-transformed integrals.
	First half integral transformation complete.
	Starting AA second half-transformation.
	Starting AB second half-transformation.
	Starting BB second half-transformation.
	Two-electron integral transformation complete.
	(OV|OV)...
	Starting AA second half-transformation.
	Starting AB second half-transformation.
	Starting BB second half-transformation.
	Two-electron integral transformation complete.
	(OV|VV)...
	Starting AA second half-transformation.
	Starting AB second half-transformation.
	Starting BB second half-transformation.
	Two-electron integral transformation complete.
	(VV|OO)...
	Starting AA/AB first half-transformation.
	Sorting AA/AB half-transformed integrals.
	Starting BB first half-transformation.
	Sorting BB half-transformed integrals.
	First half integral transformation complete.
	Starting AA second half-transformation.
	Starting AB second half-transformation.
	Starting BB second half-transformation.
	Two-electron integral transformation complete.
	(VV|OV)...
	Starting AA second half-transformation.
	Starting AB second half-transformation.
	Starting BB second half-transformation.
	Two-electron integral transformation complete.
	(VV|VV)...
	Starting AA second half-transformation.
	Starting AB second half-transformation.
	Starting BB second half-transformation.
	Two-electron integral transformation complete.
	Frozen core energy     =   -126.44171392843892

	Size of irrep 0 of <AB|CD> integrals:      5.040 (MW) /     40.320 (MB)
	Size of irrep 1 of <AB|CD> integrals:      3.197 (MW) /     25.576 (MB)
	Size of irrep 2 of <AB|CD> integrals:      3.640 (MW) /     29.124 (MB)
	Size of irrep 3 of <AB|CD> integrals:      4.783 (MW) /     38.264 (MB)
	Total:                                    16.660 (MW) /    133.283 (MB)

	Size of irrep 0 of <ab|cd> integrals:      5.382 (MW) /     43.059 (MB)
	Size of irrep 1 of <ab|cd> integrals:      3.389 (MW) /     27.114 (MB)
	Size of irrep 2 of <ab|cd> integrals:      3.936 (MW) /     31.490 (MB)
	Size of irrep 3 of <ab|cd> integrals:      5.018 (MW) /     40.141 (MB)
	Total:                                    17.726 (MW) /    141.804 (MB)

	Size of irrep 0 of <Ab|Cd> integrals:     22.024 (MW) /    176.194 (MB)
	Size of irrep 1 of <Ab|Cd> integrals:     13.170 (MW) /    105.357 (MB)
	Size of irrep 2 of <Ab|Cd> integrals:     15.140 (MW) /    121.119 (MB)
	Size of irrep 3 of <Ab|Cd> integrals:     19.598 (MW) /    156.787 (MB)
	Total:                                    69.932 (MW) /    559.457 (MB)

	Size of irrep 0 of <IA|BC> integrals:      1.469 (MW) /     11.748 (MB)
	Size of irrep 1 of <IA|BC> integrals:      0.694 (MW) /      5.550 (MB)
	Size of irrep 2 of <IA|BC> integrals:      0.908 (MW) /      7.266 (MB)
	Size of irrep 3 of <IA|BC> integrals:      1.198 (MW) /      9.588 (MB)
	Total:                                     4.269 (MW) /     34.152 (MB)

	Size of irrep 0 of <ia|bc> integrals:      1.178 (MW) /      9.426 (MB)
	Size of irrep 1 of <ia|bc> integrals:      0.527 (MW) /      4.212 (MB)
	Size of irrep 2 of <ia|bc> integrals:      0.663 (MW) /      5.301 (MB)
	Size of irrep 3 of <ia|bc> integrals:      0.999 (MW) /      7.992 (MB)
	Total:                                     3.366 (MW) /     26.931 (MB)

	Size of irrep 0 of <Ia|Bc> integrals:      1.521 (MW) /     12.164 (MB)
	Size of irrep 1 of <Ia|Bc> integrals:      0.711 (MW) /      5.690 (MB)
	Size of irrep 2 of <Ia|Bc> integrals:      0.949 (MW) /      7.595 (MB)
	Size of irrep 3 of <Ia|Bc> integrals:      1.222 (MW) /      9.775 (MB)
	Total:                                     4.403 (MW) /     35.225 (MB)

	Size of irrep 0 of <iA|bC> integrals:      1.140 (MW) /      9.123 (MB)
	Size of irrep 1 of <iA|bC> integrals:      0.512 (MW) /      4.094 (MB)
	Size of irrep 2 of <iA|bC> integrals:      0.634 (MW) /      5.074 (MB)
	Size of irrep 3 of <iA|bC> integrals:      0.978 (MW) /      7.827 (MB)
	Total:                                     3.265 (MW) /     26.118 (MB)

	Size of irrep 0 of tIjAb amplitudes:       0.084 (MW) /      0.676 (MB)
	Size of irrep 1 of tIjAb amplitudes:       0.022 (MW) /      0.174 (MB)
	Size of irrep 2 of tIjAb amplitudes:       0.039 (MW) /      0.311 (MB)
	Size of irrep 3 of tIjAb amplitudes:       0.062 (MW) /      0.496 (MB)
	Total:                                     0.207 (MW) /      1.657 (MB)

	Nuclear Rep. energy          =     23.99414694425981
	SCF energy                   =   -150.87327763810006
	One-electron energy          =    -85.60684069443235
	Two-electron (AA) energy     =     10.39900257992867
	Two-electron (BB) energy     =      5.48297889864842
	Two-electron (AB) energy     =     21.29914856193281
	Two-electron energy          =     37.18113004050990
	Reference energy             =   -150.87327763810157

*** tstop() called on c2-18.compute.lan at Mon Mar  8 16:58:39 2021
Module time:
	user time   =     456.87 seconds =       7.61 minutes
	system time =      39.66 seconds =       0.66 minutes
	total time  =         65 seconds =       1.08 minutes
Total time:
	user time   =     506.94 seconds =       8.45 minutes
	system time =      42.86 seconds =       0.71 minutes
	total time  =         74 seconds =       1.23 minutes
            **************************
            *                        *
            *        CCENERGY        *
            *                        *
            **************************

    Nuclear Rep. energy (wfn)     =   23.994146944259811
    SCF energy          (wfn)     = -150.873277638100063
    Reference energy    (file100) = -150.873277638101570

    Input parameters:
    -----------------
    Wave function   =     CCSD_T
    Reference wfn   =     UHF
    Brueckner       =     No
    Memory (Mbytes) =     4000.0
    Maxiter         =     50
    R_Convergence   =     1.0e-10
    E_Convergence   =     1.0e-10
    Restart         =     Yes
    DIIS            =     Yes
    AO Basis        =     NONE
    ABCD            =     NEW
    Cache Level     =     2
    Cache Type      =     LRU
    Print Level     =     1
    Num. of threads =     12
    # Amps to Print =     10
    Print MP2 Amps? =     No
    Analyze T2 Amps =     No
    Print Pair Ener =     No
    Local CC        =     No
    SCS-MP2         =     False
    SCSN-MP2        =     False
    SCS-CCSD        =     False

MP2 correlation energy -0.4164918514603306
                Solving CC Amplitude Equations
                ------------------------------
  Iter             Energy              RMS        T1Diag      D1Diag    New D1Diag    D2Diag
  ----     ---------------------    ---------   ----------  ----------  ----------   --------
     0        -0.416491851460331    0.000e+00    0.000000    0.000000    0.000000    0.000000
     1        -0.427231382371149    5.714e-02    0.010625    0.000000    0.000000    0.000000
     2        -0.435347820540866    1.708e-02    0.011122    0.000000    0.000000    0.000000
     3        -0.437509059745467    8.835e-03    0.013064    0.000000    0.000000    0.000000
     4        -0.437381939489834    2.706e-03    0.013483    0.000000    0.000000    0.000000
     5        -0.437372507527274    1.413e-03    0.013684    0.000000    0.000000    0.000000
     6        -0.437401890198307    5.333e-04    0.013713    0.000000    0.000000    0.000000
     7        -0.437404875346111    2.168e-04    0.013708    0.000000    0.000000    0.000000
     8        -0.437405802607496    6.698e-05    0.013703    0.000000    0.000000    0.000000
     9        -0.437406492691212    2.416e-05    0.013703    0.000000    0.000000    0.000000
    10        -0.437405582127368    9.259e-06    0.013702    0.000000    0.000000    0.000000
    11        -0.437405749470920    4.098e-06    0.013702    0.000000    0.000000    0.000000
    12        -0.437405710134861    1.506e-06    0.013702    0.000000    0.000000    0.000000
    13        -0.437405718958369    7.635e-07    0.013702    0.000000    0.000000    0.000000
    14        -0.437405742759639    3.226e-07    0.013702    0.000000    0.000000    0.000000
    15        -0.437405744235388    1.157e-07    0.013702    0.000000    0.000000    0.000000
    16        -0.437405744909558    5.366e-08    0.013702    0.000000    0.000000    0.000000
    17        -0.437405745446614    2.034e-08    0.013702    0.000000    0.000000    0.000000
    18        -0.437405745272337    1.112e-08    0.013702    0.000000    0.000000    0.000000

      * MP2 total energy                      = -151.289769489561905
      * CCSD total energy                     = -151.310683383083415
      * CCSD(T) total energy                     = -151.323005243363809
*** Psi4 exiting successfully. Buy a developer a beer!
