                               Psi4 1.3.2 release

  ==> Input File <==

--------------------------------------------------------------------------
memory 4 GB

molecule  {
0 3
O   -1.504118848002   -0.001213898208    0.000000000000
H   -0.554213804302    0.156583097092    0.000000000000
H   -1.891932609556    0.876529485027    0.000000000000
O    1.658248310210   -0.063881586584    0.000000000000
}
set {
basis aug-cc-pvtz
reference uhf
e_convergence 10
scf_type pk
freeze_core true
}

set ccenergy {
e_convergence 10
r_convergence 10
}

e = energy('ccsd(t)')

print_out('Stephenergy {}'.format(e))

--------------------------------------------------------------------------

    Molecular point group: cs

    Geometry (in Angstrom), charge = 0, multiplicity = 3:

       Center              X                  Y                   Z               Mass
    ------------   -----------------  -----------------  -----------------  -----------------
         O           -1.504118848002    -0.001213898208     0.000000000000    15.994914619570
         H           -0.554213804302     0.156583097092     0.000000000000     1.007825032230
         H           -1.891932609556     0.876529485027     0.000000000000     1.007825032230
         O            1.658248310210    -0.063881586584     0.000000000000    15.994914619570

  Charge       = 0
  Multiplicity = 3
  Basis Set: AUG-CC-PVTZ
    Blend: AUG-CC-PVTZ

    Orbital Energies [Eh]
    ---------------------

    Alpha Occupied:

       1Ap   -20.733070     2Ap   -20.558648     3Ap    -1.442403
       4Ap    -1.343439     5Ap    -0.733184     1App   -0.732797
       6Ap    -0.710474     7Ap    -0.634495     8Ap    -0.575304
       2App   -0.501998

    Alpha Virtual:

       9Ap     0.034220    10Ap     0.053483    11Ap     0.128165
       3App    0.132922    12Ap     0.148141    13Ap     0.160820
      14Ap     0.183963     4App    0.186804    15Ap     0.214134
      16Ap     0.241999    17Ap     0.264474     5App    0.286489
      18Ap     0.303872     6App    0.320593    19Ap     0.364407
      20Ap     0.406452    21Ap     0.460829    22Ap     0.568523
       7App    0.602632    23Ap     0.608711    24Ap     0.627145
      25Ap     0.682153     8App    0.709599    26Ap     0.714633
       9App    0.736648    10App    0.748773    27Ap     0.750843
      28Ap     0.811815    11App    0.826044    29Ap     0.837305
      12App    0.890972    30Ap     0.892193    31Ap     0.922751
      32Ap     0.945359    13App    0.947386    33Ap     0.951543
      14App    0.972094    34Ap     0.978570    35Ap     1.043917
      36Ap     1.135765    15App    1.154122    37Ap     1.170006
      38Ap     1.185206    39Ap     1.261378    16App    1.295040
      40Ap     1.316518    17App    1.527771    41Ap     1.586227
      18App    1.598158    42Ap     1.716157    43Ap     1.810066
      44Ap     1.843549    45Ap     1.977616    19App    1.977728
      46Ap     1.979484    20App    2.013244    47Ap     2.018097
      21App    2.048604    48Ap     2.061483    22App    2.122659
      49Ap     2.153319    50Ap     2.176079    23App    2.212723
      24App    2.303255    51Ap     2.310529    52Ap     2.339167
      53Ap     2.414912    25App    2.441697    54Ap     2.460079
      55Ap     2.490680    26App    2.526903    56Ap     2.629527
      57Ap     2.709487    27App    2.727189    58Ap     2.735548
      59Ap     2.861130    60Ap     2.932153    28App    2.944001
      61Ap     3.698379    62Ap     3.891592    29App    4.037150
      30App    4.063246    63Ap     4.074232    31App    4.178501
      64Ap     4.208502    65Ap     4.267006    32App    4.301453
      33App    4.391547    66Ap     4.406747    34App    4.430749
      67Ap     4.445807    68Ap     4.603500    69Ap     4.781373
      70Ap     4.961326    35App    5.157558    71Ap     5.174704
      72Ap     5.298771    73Ap     5.393267    36App    5.528628
      74Ap     5.691037    75Ap     6.191017    37App    6.312366
      76Ap     6.312398    38App    6.375562    77Ap     6.378234
      39App    6.518272    78Ap     6.519536    79Ap     6.559166
      80Ap     6.637234    40App    6.736097    81Ap     6.814534
      41App    6.820050    82Ap     6.924128    42App    6.936875
      83Ap     6.962050    84Ap     7.051040    43App    7.149061
      44App    7.273116    85Ap     7.326683    45App    7.328004
      86Ap     7.364391    46App    7.435062    87Ap     7.648788
      88Ap     7.945251    89Ap     7.965008    90Ap     8.815537
      91Ap     9.517554    92Ap    16.327278

    Beta Occupied:

       1Ap   -20.654285     2Ap   -20.558778     3Ap    -1.344012
       4Ap    -1.099937     5Ap    -0.709695     6Ap    -0.580295
       7Ap    -0.541236     1App   -0.502041

    Beta Virtual:

       8Ap     0.034375     2App    0.049360     9Ap     0.049612
      10Ap     0.055188    11Ap     0.143819    12Ap     0.152974
       3App    0.161218    13Ap     0.178148    14Ap     0.207814
      15Ap     0.225468     4App    0.227185    16Ap     0.250734
      17Ap     0.265724     5App    0.286697    18Ap     0.306002
       6App    0.324335    19Ap     0.368304    20Ap     0.417396
      21Ap     0.462082    22Ap     0.572106    23Ap     0.627862
       7App    0.635027    24Ap     0.640500    25Ap     0.686958
      26Ap     0.715291     8App    0.721667     9App    0.739822
      10App    0.750432    27Ap     0.767398    28Ap     0.818172
      29Ap     0.868380    11App    0.869195    30Ap     0.920032
      12App    0.941937    31Ap     0.941964    13App    0.949553
      32Ap     0.952901    33Ap     0.969856    34Ap     1.017809
      14App    1.020319    35Ap     1.046098    15App    1.157291
      36Ap     1.163758    37Ap     1.173259    38Ap     1.216220
      39Ap     1.264450    16App    1.305630    40Ap     1.325297
      17App    1.528500    41Ap     1.588474    18App    1.599582
      42Ap     1.742354    43Ap     1.815696    44Ap     1.854137
      45Ap     1.987636    46Ap     2.015688    19App    2.015699
      20App    2.053911    47Ap     2.066098    21App    2.170831
      48Ap     2.176306    22App    2.179645    49Ap     2.194155
      50Ap     2.244823    23App    2.250003    24App    2.306628
      51Ap     2.316007    52Ap     2.361767    53Ap     2.419413
      25App    2.444404    54Ap     2.460854    55Ap     2.496995
      26App    2.535350    56Ap     2.636705    57Ap     2.726300
      27App    2.728512    58Ap     2.739227    59Ap     2.862948
      60Ap     2.936586    28App    2.944627    61Ap     3.699065
      62Ap     3.893958    29App    4.040258    30App    4.147214
      63Ap     4.193224    64Ap     4.244146    31App    4.262718
      65Ap     4.277952    32App    4.301516    33App    4.391617
      66Ap     4.410429    34App    4.431410    67Ap     4.490257
      68Ap     4.605963    69Ap     4.783047    70Ap     4.963284
      35App    5.157545    71Ap     5.175000    72Ap     5.299017
      73Ap     5.394474    36App    5.528688    74Ap     5.691387
      75Ap     6.192274    76Ap     6.421215    37App    6.421220
      38App    6.450756    77Ap     6.453426    78Ap     6.534156
      39App    6.572155    79Ap     6.600454    80Ap     6.682170
      40App    6.742039    81Ap     6.926579    41App    7.005127
      82Ap     7.006843    42App    7.046098    83Ap     7.068407
      84Ap     7.130764    43App    7.151596    44App    7.273394
      85Ap     7.327008    45App    7.328678    86Ap     7.365157
      46App    7.435472    87Ap     7.649614    88Ap     7.946202
      89Ap     7.965430    90Ap     8.817118    91Ap     9.592528
      92Ap    16.327544

    Final Occupation by Irrep:
             Ap   App
    DOCC [     7,    1 ]
    SOCC [     1,    1 ]

  @UHF Final Energy:  -150.87452240253685

   => Energetics <=

    Nuclear Repulsion Energy =             22.9205078220654315
    One-Electron Energy =                -253.6339695923385307
    Two-Electron Energy =                  79.8389393677362591
    Total Energy =                       -150.8745224025368543

  UHF NO Occupations:
  HONO-2 :    7 Ap 1.9970282
  HONO-1 :    2App 1.0000000
  HONO-0 :    8 Ap 1.0000000
  LUNO+0 :    9 Ap 0.0029718
  LUNO+1 :   10 Ap 0.0017159
  LUNO+2 :   11 Ap 0.0000024
  LUNO+3 :   12 Ap 0.0000017

Computation Completed

Properties will be evaluated at   0.000000,   0.000000,   0.000000 [a0]

Properties computed using the SCF density matrix

  Nuclear Dipole Moment: [e a0]
     X:    -2.2924      Y:     0.9682      Z:     0.0000

  Electronic Dipole Moment: [e a0]
     X:     2.7564      Y:    -0.2933      Z:     0.0000

  Dipole Moment: [e a0]
     X:     0.4640      Y:     0.6749      Z:     0.0000     Total:     0.8190

  Dipole Moment: [D]
     X:     1.1793      Y:     1.7154      Z:     0.0000     Total:     2.0817

*** tstop() called on d4-10.compute.lan at Tue Mar  9 15:35:37 2021
Module time:
	user time   =      52.91 seconds =       0.88 minutes
	system time =       2.24 seconds =       0.04 minutes
	total time  =          5 seconds =       0.08 minutes
Total time:
	user time   =      52.91 seconds =       0.88 minutes
	system time =       2.24 seconds =       0.04 minutes
	total time  =          5 seconds =       0.08 minutes
 MINTS: Wrapper to libmints.
   by Justin Turney

   Calculation information:
      Number of threads:                12
      Number of atoms:                   4
      Number of AO shells:              46
      Number of SO shells:              46
      Number of primitives:             82
      Number of atomic orbitals:       160
      Number of basis functions:       138

      Number of irreps:                  2
      Integral cutoff                 0.00e+00
      Number of functions per irrep: [  92   46 ]

 OEINTS: Overlap, kinetic, potential, dipole, and quadrupole integrals
         stored in file 35.

      Computing two-electron integrals...done
      Computed 22919838 non-zero two-electron integrals.
        Stored in file 33.

*** tstart() called on d4-10.compute.lan
*** at Tue Mar  9 15:35:41 2021

	Wfn Parameters:
	--------------------
	Wavefunction         = CCSD_T
	Number of irreps     = 2
	Number of MOs        = 138
	Number of active MOs = 136
	AO-Basis             = NONE
	Semicanonical        = false
	Reference            = UHF
	Print Level          = 1

	IRREP	# MOs	# FZDC	# DOCC	# SOCC	# VIRT	# FZVR
	-----	-----	------	------	------	------	------
	 Ap	   92	    2	    5	    1	    84	    0
	 App	   46	    0	    1	    1	    44	    0
	Transforming integrals...
	IWL integrals will be deleted.
	(OO|OO)...
	Presorting SO-basis two-electron integrals.
	Sorting File: SO Ints (nn|nn) nbuckets = 1
	Transforming the one-electron integrals and constructing Fock matrices
	Starting AA/AB first half-transformation.
	Sorting AA/AB half-transformed integrals.
	Starting BB first half-transformation.
	Sorting BB half-transformed integrals.
	First half integral transformation complete.
	Starting AA second half-transformation.
	Starting AB second half-transformation.
	Starting BB second half-transformation.
	Two-electron integral transformation complete.
	(OO|OV)...
	Starting AA second half-transformation.
	Starting AB second half-transformation.
	Starting BB second half-transformation.
	Two-electron integral transformation complete.
	(OO|VV)...
	Starting AA second half-transformation.
	Starting AB second half-transformation.
	Starting BB second half-transformation.
	Two-electron integral transformation complete.
	(OV|OO)...
	Starting AA/AB first half-transformation.
	Sorting AA/AB half-transformed integrals.
	Starting BB first half-transformation.
	Sorting BB half-transformed integrals.
	First half integral transformation complete.
	Starting AA second half-transformation.
	Starting AB second half-transformation.
	Starting BB second half-transformation.
	Two-electron integral transformation complete.
	(OV|OV)...
	Starting AA second half-transformation.
	Starting AB second half-transformation.
	Starting BB second half-transformation.
	Two-electron integral transformation complete.
	(OV|VV)...
	Starting AA second half-transformation.
	Starting AB second half-transformation.
	Starting BB second half-transformation.
	Two-electron integral transformation complete.
	(VV|OO)...
	Starting AA/AB first half-transformation.
	Sorting AA/AB half-transformed integrals.
	Starting BB first half-transformation.
	Sorting BB half-transformed integrals.
	First half integral transformation complete.
	Starting AA second half-transformation.
	Starting AB second half-transformation.
	Starting BB second half-transformation.
	Two-electron integral transformation complete.
	(VV|OV)...
	Starting AA second half-transformation.
	Starting AB second half-transformation.
	Starting BB second half-transformation.
	Two-electron integral transformation complete.
	(VV|VV)...
	Starting AA second half-transformation.
	Starting AB second half-transformation.
	Starting BB second half-transformation.
	Two-electron integral transformation complete.
	Frozen core energy     =   -125.86163233547890

	Size of irrep 0 of <AB|CD> integrals:     19.643 (MW) /    157.141 (MB)
	Size of irrep 1 of <AB|CD> integrals:     13.660 (MW) /    109.283 (MB)
	Total:                                    33.303 (MW) /    266.424 (MB)

	Size of irrep 0 of <ab|cd> integrals:     20.794 (MW) /    166.349 (MB)
	Size of irrep 1 of <ab|cd> integrals:     14.631 (MW) /    117.045 (MB)
	Total:                                    35.424 (MW) /    283.394 (MB)

	Size of irrep 0 of <Ab|Cd> integrals:     83.174 (MW) /    665.395 (MB)
	Size of irrep 1 of <Ab|Cd> integrals:     56.550 (MW) /    452.403 (MB)
	Total:                                   139.725 (MW) /   1117.798 (MB)

	Size of irrep 0 of <IA|BC> integrals:      5.323 (MW) /     42.586 (MB)
	Size of irrep 1 of <IA|BC> integrals:      3.193 (MW) /     25.547 (MB)
	Total:                                     8.517 (MW) /     68.133 (MB)

	Size of irrep 0 of <ia|bc> integrals:      4.348 (MW) /     34.780 (MB)
	Size of irrep 1 of <ia|bc> integrals:      2.372 (MW) /     18.972 (MB)
	Total:                                     6.719 (MW) /     53.752 (MB)

	Size of irrep 0 of <Ia|Bc> integrals:      5.472 (MW) /     43.776 (MB)
	Size of irrep 1 of <Ia|Bc> integrals:      3.309 (MW) /     26.470 (MB)
	Total:                                     8.781 (MW) /     70.246 (MB)

	Size of irrep 0 of <iA|bC> integrals:      4.232 (MW) /     33.853 (MB)
	Size of irrep 1 of <iA|bC> integrals:      2.286 (MW) /     18.289 (MB)
	Total:                                     6.518 (MW) /     52.142 (MB)

	Size of irrep 0 of tIjAb amplitudes:       0.292 (MW) /      2.335 (MB)
	Size of irrep 1 of tIjAb amplitudes:       0.120 (MW) /      0.963 (MB)
	Total:                                     0.412 (MW) /      3.297 (MB)

	Nuclear Rep. energy          =     22.92050782206543
	SCF energy                   =   -150.87452240253685
	One-electron energy          =    -84.41548589477792
	Two-electron (AA) energy     =     10.13800918137563
	Two-electron (BB) energy     =      5.39335882133316
	Two-electron (AB) energy     =     20.95072000294491
	Two-electron energy          =     36.48208800565370
	Reference energy             =   -150.87452240253768

*** tstop() called on d4-10.compute.lan at Tue Mar  9 15:36:23 2021
Module time:
	user time   =     225.75 seconds =       3.76 minutes
	system time =      18.76 seconds =       0.31 minutes
	total time  =         42 seconds =       0.70 minutes
Total time:
	user time   =     285.96 seconds =       4.77 minutes
	system time =      21.93 seconds =       0.37 minutes
	total time  =         51 seconds =       0.85 minutes
            **************************
            *                        *
            *        CCENERGY        *
            *                        *
            **************************

    Nuclear Rep. energy (wfn)     =   22.920507822065431
    SCF energy          (wfn)     = -150.874522402536854
    Reference energy    (file100) = -150.874522402537679

    Input parameters:
    -----------------
    Wave function   =     CCSD_T
    Reference wfn   =     UHF
    Brueckner       =     No
    Memory (Mbytes) =     4000.0
    Maxiter         =     50
    R_Convergence   =     1.0e-10
    E_Convergence   =     1.0e-10
    Restart         =     Yes
    DIIS            =     Yes
    AO Basis        =     NONE
    ABCD            =     NEW
    Cache Level     =     2
    Cache Type      =     LRU
    Print Level     =     1
    Num. of threads =     12
    # Amps to Print =     10
    Print MP2 Amps? =     No
    Analyze T2 Amps =     No
    Print Pair Ener =     No
    Local CC        =     No
    SCS-MP2         =     False
    SCSN-MP2        =     False
    SCS-CCSD        =     False

MP2 correlation energy -0.4165621312342976
                Solving CC Amplitude Equations
                ------------------------------
  Iter             Energy              RMS        T1Diag      D1Diag    New D1Diag    D2Diag
  ----     ---------------------    ---------   ----------  ----------  ----------   --------
     0        -0.416562131234298    0.000e+00    0.000000    0.000000    0.000000    0.000000
     1        -0.427296247757293    5.684e-02    0.010545    0.000000    0.000000    0.000000
     2        -0.435378257977414    1.688e-02    0.011025    0.000000    0.000000    0.000000
     3        -0.437496996128742    8.566e-03    0.012894    0.000000    0.000000    0.000000
     4        -0.437371151680577    2.534e-03    0.013261    0.000000    0.000000    0.000000
     5        -0.437356719568707    1.320e-03    0.013417    0.000000    0.000000    0.000000
     6        -0.437383961780936    5.145e-04    0.013439    0.000000    0.000000    0.000000
     7        -0.437388590804452    2.644e-04    0.013434    0.000000    0.000000    0.000000
     8        -0.437389188716250    9.938e-05    0.013429    0.000000    0.000000    0.000000
     9        -0.437390557031487    7.411e-05    0.013430    0.000000    0.000000    0.000000
    10        -0.437389001146235    6.400e-05    0.013431    0.000000    0.000000    0.000000
    11        -0.437389147791589    6.115e-05    0.013433    0.000000    0.000000    0.000000
    12        -0.437388859978998    5.947e-05    0.013435    0.000000    0.000000    0.000000
    13        -0.437388852803082    5.833e-05    0.013438    0.000000    0.000000    0.000000
    14        -0.437390024340437    5.646e-05    0.013456    0.000000    0.000000    0.000000
    15        -0.437390401783323    4.995e-05    0.013528    0.000000    0.000000    0.000000
    16        -0.437390177661131    3.340e-05    0.013668    0.000000    0.000000    0.000000
    17        -0.437389831390440    1.613e-05    0.013736    0.000000    0.000000    0.000000
    18        -0.437389701904642    7.565e-06    0.013753    0.000000    0.000000    0.000000
    19        -0.437389960747061    3.345e-06    0.013758    0.000000    0.000000    0.000000
    20        -0.437390072295862    1.499e-06    0.013759    0.000000    0.000000    0.000000
    21        -0.437390080298280    5.910e-07    0.013759    0.000000    0.000000    0.000000
    22        -0.437390081561474    2.809e-07    0.013759    0.000000    0.000000    0.000000
    23        -0.437390080441150    1.460e-07    0.013759    0.000000    0.000000    0.000000
    24        -0.437390079759137    6.060e-08    0.013759    0.000000    0.000000    0.000000
    25        -0.437390080720825    3.315e-08    0.013759    0.000000    0.000000    0.000000
    26        -0.437390081181520    2.577e-08    0.013759    0.000000    0.000000    0.000000
    27        -0.437390081340719    2.414e-08    0.013759    0.000000    0.000000    0.000000
    28        -0.437390081287637    2.339e-08    0.013759    0.000000    0.000000    0.000000
    29        -0.437390081122678    2.272e-08    0.013759    0.000000    0.000000    0.000000
    30        -0.437390080854102    2.162e-08    0.013759    0.000000    0.000000    0.000000
    31        -0.437390081053422    1.830e-08    0.013759    0.000000    0.000000    0.000000
    32        -0.437390081400345    9.588e-09    0.013759    0.000000    0.000000    0.000000
    33        -0.437390081503046    4.200e-09    0.013759    0.000000    0.000000    0.000000
    34        -0.437390081555218    1.713e-09    0.013759    0.000000    0.000000    0.000000
    35        -0.437390081561910    6.718e-10    0.013759    0.000000    0.000000    0.000000
    36        -0.437390081561673    2.879e-10    0.013759    0.000000    0.000000    0.000000

      * MP2 total energy                      = -151.291084533771965
      * CCSD total energy                     = -151.311912484098684
      * CCSD(T) total energy                     = -151.324260770757689
*** Psi4 exiting successfully. Buy a developer a beer!
