                               Psi4 1.3.2 release

  ==> Input File <==

--------------------------------------------------------------------------
memory 4 GB

molecule  {
0 3
O    0.000000000000    0.000000000000   -1.503474558826
H    0.000000000000   -0.748606484000   -0.893749634599
H   -0.000000000000    0.748606484000   -0.893749634599
O    0.000000000000    0.000000000000    1.616103263101
}
set {
basis aug-cc-pvtz
reference uhf
e_convergence 10
scf_type pk
freeze_core true
}

set ccenergy {
e_convergence 10
r_convergence 10
}

e = energy('ccsd(t)')

print_out('Stephenergy {}'.format(e))

--------------------------------------------------------------------------

    Molecular point group: c2v

    Geometry (in Angstrom), charge = 0, multiplicity = 3:

       Center              X                  Y                   Z               Mass
    ------------   -----------------  -----------------  -----------------  -----------------
         O           -0.000000000000     0.000000000000    -1.503474558826    15.994914619570
         H            0.000000000000    -0.748606484000    -0.893749634599     1.007825032230
         H           -0.000000000000     0.748606484000    -0.893749634599     1.007825032230
         O           -0.000000000000     0.000000000000     1.616103263101    15.994914619570

  Charge       = 0
  Multiplicity = 3
  Basis Set: AUG-CC-PVTZ
    Blend: AUG-CC-PVTZ

    Orbital Energies [Eh]
    ---------------------

    Alpha Occupied:

       1A1   -20.732289     2A1   -20.561968     3A1    -1.441992
       4A1    -1.344192     1B2    -0.733465     1B1    -0.732664
       2B2    -0.700638     5A1    -0.639122     6A1    -0.578456
       2B1    -0.503514

    Alpha Virtual:

       7A1     0.035931     3B2     0.048663     3B1     0.131164
       8A1     0.131806     9A1     0.151671     4B2     0.159070
       4B1     0.184938     5B2     0.185953    10A1     0.191034
      11A1     0.261344     6B2     0.262570     1A2     0.266006
      12A1     0.275361     5B1     0.324749    13A1     0.381064
       7B2     0.385669    14A1     0.454323     8B2     0.473934
       2A2     0.611598    15A1     0.626988     9B2     0.627419
      16A1     0.639309     6B1     0.649764    17A1     0.716741
       3A2     0.732306    10B2     0.747755     7B1     0.759118
      18A1     0.786102     8B1     0.829396    11B2     0.849835
      19A1     0.858024     9B1     0.919811    12B2     0.943238
       4A2     0.945629    20A1     0.960697    21A1     0.981908
      10B1     0.991493    13B2     1.003609    22A1     1.057835
      14B2     1.060704    11B1     1.156844     5A2     1.193739
      23A1     1.201018    24A1     1.239647    15B2     1.271226
      16B2     1.324705    25A1     1.420648     6A2     1.509085
      12B1     1.584824    26A1     1.729340    27A1     1.838541
      17B2     1.849369    18B2     1.962070    13B1     1.976258
      28A1     2.007058    19B2     2.007665     7A2     2.017639
      14B1     2.037185    29A1     2.043409     8A2     2.068709
      30A1     2.095046    20B2     2.109715    15B1     2.149407
      31A1     2.201218    16B1     2.306173    21B2     2.322470
       9A2     2.341459    32A1     2.378522    33A1     2.413499
      34A1     2.486276    22B2     2.523823    17B1     2.550447
      35A1     2.604052    23B2     2.698393    18B1     2.726538
      36A1     2.845069    10A2     2.890163    24B2     2.902073
      25B2     3.671851    37A1     3.735632    11A2     4.045282
      19B1     4.053757    20B1     4.110023    26B2     4.115870
      38A1     4.216078    21B1     4.261865    27B2     4.278785
      39A1     4.304422    12A2     4.385412    22B1     4.420377
      40A1     4.500424    28B2     4.543863    41A1     4.765315
      29B2     4.858903    13A2     5.137380    30B2     5.184988
      31B2     5.231281    42A1     5.362363    23B1     5.524783
      43A1     5.655042    44A1     6.212679    24B1     6.312566
      32B2     6.315009    14A2     6.384757    45A1     6.396860
      25B1     6.419122    33B2     6.491307    46A1     6.509360
      34B2     6.546212    26B1     6.767496    15A2     6.821219
      47A1     6.823471    27B1     6.940044    48A1     6.945476
      35B2     6.978626    49A1     7.040077    28B1     7.135899
      29B1     7.263990    16A2     7.315120    36B2     7.332166
      17A2     7.357169    50A1     7.388034    51A1     7.550912
      52A1     7.881413    37B2     7.943112    53A1     8.778176
      38B2     8.808254    54A1    15.648805

    Beta Occupied:

       1A1   -20.653796     2A1   -20.562039     3A1    -1.344606
       4A1    -1.099906     1B2    -0.700990     5A1    -0.589567
       6A1    -0.539005     1B1    -0.503448

    Beta Virtual:

       2B2     0.033135     7A1     0.037188     2B1     0.047475
       3B2     0.069390     8A1     0.137388     9A1     0.154219
       3B1     0.161276     4B2     0.179696    10A1     0.191473
       4B1     0.225786     5B2     0.226088     6B2     0.265059
       1A2     0.266576    11A1     0.269315    12A1     0.279021
       5B1     0.326493    13A1     0.384707     7B2     0.393726
      14A1     0.455997     8B2     0.474395     9B2     0.628892
      15A1     0.641254     2A2     0.643556    16A1     0.660043
       6B1     0.660302    17A1     0.717723     3A2     0.733492
      10B2     0.761159     7B1     0.763224    18A1     0.800790
      19A1     0.862466     8B1     0.910262     9B1     0.937858
      11B2     0.939797     4A2     0.948129    12B2     0.952783
      20A1     0.962466    21A1     0.987582    13B2     1.031758
      10B1     1.036966    22A1     1.059717    14B2     1.069925
      11B1     1.168824     5A2     1.194771    23A1     1.205448
      15B2     1.271353    24A1     1.282295    16B2     1.342972
      25A1     1.444332     6A2     1.509394    12B1     1.585186
      26A1     1.749285    27A1     1.842113    17B2     1.850551
      18B2     1.974247    13B1     2.013654    28A1     2.032539
      19B2     2.033233    14B1     2.063981     7A2     2.070282
      29A1     2.102135    20B2     2.165924     8A2     2.186349
      30A1     2.187679    15B1     2.206880    31A1     2.243333
      16B1     2.315679     9A2     2.346604    21B2     2.354947
      32A1     2.382629    33A1     2.433049    34A1     2.487282
      22B2     2.531748    17B1     2.555321    35A1     2.608031
      23B2     2.699010    18B1     2.726716    36A1     2.845906
      10A2     2.890231    24B2     2.903605    25B2     3.672321
      37A1     3.736058    11A2     4.045429    19B1     4.105066
      38A1     4.221341    20B1     4.228021    21B1     4.263788
      26B2     4.268323    27B2     4.293038    39A1     4.321308
      12A2     4.385485    22B1     4.421222    40A1     4.525524
      28B2     4.545468    41A1     4.766242    29B2     4.859512
      13A2     5.137433    30B2     5.185053    31B2     5.231422
      42A1     5.362806    23B1     5.524790    43A1     5.655329
      44A1     6.217946    24B1     6.421212    32B2     6.423329
      14A2     6.461227    45A1     6.469667    25B1     6.473242
      33B2     6.508011    46A1     6.555324    34B2     6.586322
      26B1     6.774969    47A1     6.948071    15A2     7.009747
      48A1     7.014044    27B1     7.045383    35B2     7.087303
      49A1     7.117092    28B1     7.137368    29B1     7.264060
      16A2     7.315167    36B2     7.333019    17A2     7.357336
      50A1     7.389336    51A1     7.552558    52A1     7.881590
      37B2     7.943118    38B2     8.808123    53A1     8.859479
      54A1    15.648812

    Final Occupation by Irrep:
             A1    A2    B1    B2
    DOCC [     6,    0,    1,    1 ]
    SOCC [     0,    0,    1,    1 ]

  @UHF Final Energy:  -150.87204673741951

   => Energetics <=

    Nuclear Repulsion Energy =             23.2119791241973275
    One-Electron Energy =                -254.2063955936899902
    Two-Electron Energy =                  80.1223697320731389
    Total Energy =                       -150.8720467374195096

  UHF NO Occupations:
  HONO-2 :    6 A1 1.9970822
  HONO-1 :    2 B2 1.0000000
  HONO-0 :    2 B1 1.0000000
  LUNO+0 :    7 A1 0.0029178
  LUNO+1 :    8 A1 0.0016284
  LUNO+2 :    9 A1 0.0000024
  LUNO+3 :   10 A1 0.0000015

Computation Completed

Properties will be evaluated at   0.000000,   0.000000,   0.000000 [a0]

Properties computed using the SCF density matrix

  Nuclear Dipole Moment: [e a0]
     X:    -0.0000      Y:     0.0000      Z:    -1.6752

  Electronic Dipole Moment: [e a0]
     X:     0.0000      Y:     0.0000      Z:     2.5358

  Dipole Moment: [e a0]
     X:    -0.0000      Y:     0.0000      Z:     0.8606     Total:     0.8606

  Dipole Moment: [D]
     X:    -0.0000      Y:     0.0000      Z:     2.1874     Total:     2.1874

*** tstop() called on c1-11.compute.lan at Wed Mar 10 09:32:13 2021
Module time:
	user time   =      45.21 seconds =       0.75 minutes
	system time =       2.86 seconds =       0.05 minutes
	total time  =          7 seconds =       0.12 minutes
Total time:
	user time   =      45.21 seconds =       0.75 minutes
	system time =       2.86 seconds =       0.05 minutes
	total time  =          7 seconds =       0.12 minutes
 MINTS: Wrapper to libmints.
   by Justin Turney

   Calculation information:
      Number of threads:                12
      Number of atoms:                   4
      Number of AO shells:              46
      Number of SO shells:              37
      Number of primitives:             82
      Number of atomic orbitals:       160
      Number of basis functions:       138

      Number of irreps:                  4
      Integral cutoff                 0.00e+00
      Number of functions per irrep: [  54   17   29   38 ]

 OEINTS: Overlap, kinetic, potential, dipole, and quadrupole integrals
         stored in file 35.

      Computing two-electron integrals...done
      Computed 11526849 non-zero two-electron integrals.
        Stored in file 33.

*** tstart() called on c1-11.compute.lan
*** at Wed Mar 10 09:32:16 2021

	Wfn Parameters:
	--------------------
	Wavefunction         = CCSD_T
	Number of irreps     = 4
	Number of MOs        = 138
	Number of active MOs = 136
	AO-Basis             = NONE
	Semicanonical        = false
	Reference            = UHF
	Print Level          = 1

	IRREP	# MOs	# FZDC	# DOCC	# SOCC	# VIRT	# FZVR
	-----	-----	------	------	------	------	------
	 A1	   54	    2	    4	    0	    48	    0
	 A2	   17	    0	    0	    0	    17	    0
	 B1	   29	    0	    1	    1	    27	    0
	 B2	   38	    0	    1	    1	    36	    0
	Transforming integrals...
	IWL integrals will be deleted.
	(OO|OO)...
	Presorting SO-basis two-electron integrals.
	Sorting File: SO Ints (nn|nn) nbuckets = 1
	Transforming the one-electron integrals and constructing Fock matrices
	Starting AA/AB first half-transformation.
	Sorting AA/AB half-transformed integrals.
	Starting BB first half-transformation.
	Sorting BB half-transformed integrals.
	First half integral transformation complete.
	Starting AA second half-transformation.
	Starting AB second half-transformation.
	Starting BB second half-transformation.
	Two-electron integral transformation complete.
	(OO|OV)...
	Starting AA second half-transformation.
	Starting AB second half-transformation.
	Starting BB second half-transformation.
	Two-electron integral transformation complete.
	(OO|VV)...
	Starting AA second half-transformation.
	Starting AB second half-transformation.
	Starting BB second half-transformation.
	Two-electron integral transformation complete.
	(OV|OO)...
	Starting AA/AB first half-transformation.
	Sorting AA/AB half-transformed integrals.
	Starting BB first half-transformation.
	Sorting BB half-transformed integrals.
	First half integral transformation complete.
	Starting AA second half-transformation.
	Starting AB second half-transformation.
	Starting BB second half-transformation.
	Two-electron integral transformation complete.
	(OV|OV)...
	Starting AA second half-transformation.
	Starting AB second half-transformation.
	Starting BB second half-transformation.
	Two-electron integral transformation complete.
	(OV|VV)...
	Starting AA second half-transformation.
	Starting AB second half-transformation.
	Starting BB second half-transformation.
	Two-electron integral transformation complete.
	(VV|OO)...
	Starting AA/AB first half-transformation.
	Sorting AA/AB half-transformed integrals.
	Starting BB first half-transformation.
	Sorting BB half-transformed integrals.
	First half integral transformation complete.
	Starting AA second half-transformation.
	Starting AB second half-transformation.
	Starting BB second half-transformation.
	Two-electron integral transformation complete.
	(VV|OV)...
	Starting AA second half-transformation.
	Starting AB second half-transformation.
	Starting BB second half-transformation.
	Two-electron integral transformation complete.
	(VV|VV)...
	Starting AA second half-transformation.
	Starting AB second half-transformation.
	Starting BB second half-transformation.
	Two-electron integral transformation complete.
	Frozen core energy     =   -125.96124709158113

	Size of irrep 0 of <AB|CD> integrals:      5.040 (MW) /     40.320 (MB)
	Size of irrep 1 of <AB|CD> integrals:      3.197 (MW) /     25.576 (MB)
	Size of irrep 2 of <AB|CD> integrals:      3.640 (MW) /     29.124 (MB)
	Size of irrep 3 of <AB|CD> integrals:      4.783 (MW) /     38.264 (MB)
	Total:                                    16.660 (MW) /    133.283 (MB)

	Size of irrep 0 of <ab|cd> integrals:      5.327 (MW) /     42.615 (MB)
	Size of irrep 1 of <ab|cd> integrals:      3.430 (MW) /     27.439 (MB)
	Size of irrep 2 of <ab|cd> integrals:      3.893 (MW) /     31.142 (MB)
	Size of irrep 3 of <ab|cd> integrals:      5.072 (MW) /     40.572 (MB)
	Total:                                    17.721 (MW) /    141.768 (MB)

	Size of irrep 0 of <Ab|Cd> integrals:     21.912 (MW) /    175.294 (MB)
	Size of irrep 1 of <Ab|Cd> integrals:     13.242 (MW) /    105.939 (MB)
	Size of irrep 2 of <Ab|Cd> integrals:     15.062 (MW) /    120.497 (MB)
	Size of irrep 3 of <Ab|Cd> integrals:     19.705 (MW) /    157.638 (MB)
	Total:                                    69.921 (MW) /    559.368 (MB)

	Size of irrep 0 of <IA|BC> integrals:      1.469 (MW) /     11.748 (MB)
	Size of irrep 1 of <IA|BC> integrals:      0.694 (MW) /      5.550 (MB)
	Size of irrep 2 of <IA|BC> integrals:      0.908 (MW) /      7.266 (MB)
	Size of irrep 3 of <IA|BC> integrals:      1.198 (MW) /      9.588 (MB)
	Total:                                     4.269 (MW) /     34.152 (MB)

	Size of irrep 0 of <ia|bc> integrals:      1.220 (MW) /      9.758 (MB)
	Size of irrep 1 of <ia|bc> integrals:      0.493 (MW) /      3.941 (MB)
	Size of irrep 2 of <ia|bc> integrals:      0.698 (MW) /      5.588 (MB)
	Size of irrep 3 of <ia|bc> integrals:      0.959 (MW) /      7.675 (MB)
	Total:                                     3.370 (MW) /     26.961 (MB)

	Size of irrep 0 of <Ia|Bc> integrals:      1.507 (MW) /     12.058 (MB)
	Size of irrep 1 of <Ia|Bc> integrals:      0.721 (MW) /      5.764 (MB)
	Size of irrep 2 of <Ia|Bc> integrals:      0.939 (MW) /      7.514 (MB)
	Size of irrep 3 of <Ia|Bc> integrals:      1.234 (MW) /      9.872 (MB)
	Total:                                     4.401 (MW) /     35.208 (MB)

	Size of irrep 0 of <iA|bC> integrals:      1.194 (MW) /      9.549 (MB)
	Size of irrep 1 of <iA|bC> integrals:      0.477 (MW) /      3.814 (MB)
	Size of irrep 2 of <iA|bC> integrals:      0.671 (MW) /      5.371 (MB)
	Size of irrep 3 of <iA|bC> integrals:      0.928 (MW) /      7.422 (MB)
	Total:                                     3.270 (MW) /     26.156 (MB)

	Size of irrep 0 of tIjAb amplitudes:       0.094 (MW) /      0.749 (MB)
	Size of irrep 1 of tIjAb amplitudes:       0.015 (MW) /      0.116 (MB)
	Size of irrep 2 of tIjAb amplitudes:       0.047 (MW) /      0.373 (MB)
	Size of irrep 3 of tIjAb amplitudes:       0.053 (MW) /      0.426 (MB)
	Total:                                     0.208 (MW) /      1.664 (MB)

	Nuclear Rep. energy          =     23.21197912419733
	SCF energy                   =   -150.87204673741951
	One-electron energy          =    -84.79399268533071
	Two-electron (AA) energy     =     10.20143921444374
	Two-electron (BB) energy     =      5.42444220387546
	Two-electron (AB) energy     =     21.04533249697453
	Two-electron energy          =     36.67121391529372
	Reference energy             =   -150.87204673742079

*** tstop() called on c1-11.compute.lan at Wed Mar 10 09:32:43 2021
Module time:
	user time   =     115.67 seconds =       1.93 minutes
	system time =      17.49 seconds =       0.29 minutes
	total time  =         27 seconds =       0.45 minutes
Total time:
	user time   =     165.58 seconds =       2.76 minutes
	system time =      20.86 seconds =       0.35 minutes
	total time  =         37 seconds =       0.62 minutes
            **************************
            *                        *
            *        CCENERGY        *
            *                        *
            **************************

    Nuclear Rep. energy (wfn)     =   23.211979124197327
    SCF energy          (wfn)     = -150.872046737419510
    Reference energy    (file100) = -150.872046737420789

    Input parameters:
    -----------------
    Wave function   =     CCSD_T
    Reference wfn   =     UHF
    Brueckner       =     No
    Memory (Mbytes) =     4000.0
    Maxiter         =     50
    R_Convergence   =     1.0e-10
    E_Convergence   =     1.0e-10
    Restart         =     Yes
    DIIS            =     Yes
    AO Basis        =     NONE
    ABCD            =     NEW
    Cache Level     =     2
    Cache Type      =     LRU
    Print Level     =     1
    Num. of threads =     12
    # Amps to Print =     10
    Print MP2 Amps? =     No
    Analyze T2 Amps =     No
    Print Pair Ener =     No
    Local CC        =     No
    SCS-MP2         =     False
    SCSN-MP2        =     False
    SCS-CCSD        =     False

MP2 correlation energy -0.4166638888005194
                Solving CC Amplitude Equations
                ------------------------------
  Iter             Energy              RMS        T1Diag      D1Diag    New D1Diag    D2Diag
  ----     ---------------------    ---------   ----------  ----------  ----------   --------
     0        -0.416663888800519    0.000e+00    0.000000    0.000000    0.000000    0.000000
     1        -0.427412783977231    5.683e-02    0.010490    0.000000    0.000000    0.000000
     2        -0.435579088269734    1.690e-02    0.011019    0.000000    0.000000    0.000000
     3        -0.437686279235179    8.572e-03    0.012891    0.000000    0.000000    0.000000
     4        -0.437562167774402    2.518e-03    0.013260    0.000000    0.000000    0.000000
     5        -0.437545503479209    1.343e-03    0.013422    0.000000    0.000000    0.000000
     6        -0.437572617830664    5.207e-04    0.013451    0.000000    0.000000    0.000000
     7        -0.437577510701280    2.769e-04    0.013449    0.000000    0.000000    0.000000
     8        -0.437578048079192    8.652e-05    0.013445    0.000000    0.000000    0.000000
     9        -0.437579420799666    4.612e-05    0.013446    0.000000    0.000000    0.000000
    10        -0.437577810458011    2.261e-05    0.013447    0.000000    0.000000    0.000000
    11        -0.437577960063473    1.253e-05    0.013448    0.000000    0.000000    0.000000
    12        -0.437577909405433    5.440e-06    0.013449    0.000000    0.000000    0.000000
    13        -0.437577951316780    2.041e-06    0.013449    0.000000    0.000000    0.000000
    14        -0.437578017504374    8.153e-07    0.013449    0.000000    0.000000    0.000000
    15        -0.437578022273638    2.218e-07    0.013449    0.000000    0.000000    0.000000
    16        -0.437578023062078    1.204e-07    0.013449    0.000000    0.000000    0.000000
    17        -0.437578024267197    3.816e-08    0.013449    0.000000    0.000000    0.000000
    18        -0.437578023644571    1.785e-08    0.013449    0.000000    0.000000    0.000000

      * MP2 total energy                      = -151.288710626221302
      * CCSD total energy                     = -151.309624760930689
      * CCSD(T) total energy                     = -151.321975013304353
*** Psi4 exiting successfully. Buy a developer a beer!
