                               Psi4 1.3.2 release

  ==> Input File <==

--------------------------------------------------------------------------
memory 4 GB

molecule  {
0 3
O   -1.504600318049   -0.001214210654    0.000000000000
H   -0.553786250216    0.156582981967    0.000000000000
H   -1.893976270605    0.877183654573    0.000000000000
O    1.658831609689   -0.063922485513    0.000000000000
}
set {
basis aug-cc-pvtz
reference uhf
e_convergence 10
scf_type pk
freeze_core true
}

set ccenergy {
e_convergence 10
r_convergence 10
}

e = energy('ccsd(t)')

print_out('Stephenergy {}'.format(e))

--------------------------------------------------------------------------

    Molecular point group: cs

    Geometry (in Angstrom), charge = 0, multiplicity = 3:

       Center              X                  Y                   Z               Mass
    ------------   -----------------  -----------------  -----------------  -----------------
         O           -1.504600318049    -0.001214210654     0.000000000000    15.994914619570
         H           -0.553786250216     0.156582981967     0.000000000000     1.007825032230
         H           -1.893976270605     0.877183654573     0.000000000000     1.007825032230
         O            1.658831609689    -0.063922485513     0.000000000000    15.994914619570

  Charge       = 0
  Multiplicity = 3
  Basis Set: AUG-CC-PVTZ
    Blend: AUG-CC-PVTZ

    Orbital Energies [Eh]
    ---------------------

    Alpha Occupied:

       1Ap   -20.733082     2Ap   -20.558798     3Ap    -1.442412
       4Ap    -1.342836     5Ap    -0.733184     1App   -0.732806
       6Ap    -0.710071     7Ap    -0.634476     8Ap    -0.574954
       2App   -0.501883

    Alpha Virtual:

       9Ap     0.034212    10Ap     0.053478    11Ap     0.128179
       3App    0.132933    12Ap     0.148132    13Ap     0.160780
      14Ap     0.183950     4App    0.186822    15Ap     0.214121
      16Ap     0.241939    17Ap     0.264356     5App    0.286473
      18Ap     0.303894     6App    0.320592    19Ap     0.364211
      20Ap     0.406322    21Ap     0.460587    22Ap     0.568606
       7App    0.602614    23Ap     0.608681    24Ap     0.627053
      25Ap     0.681951     8App    0.709456    26Ap     0.714670
       9App    0.736672    10App    0.748824    27Ap     0.750761
      28Ap     0.811615    11App    0.826018    29Ap     0.837043
      12App    0.890874    30Ap     0.891988    31Ap     0.922772
      32Ap     0.945162    13App    0.947585    33Ap     0.951373
      14App    0.971852    34Ap     0.978575    35Ap     1.043477
      36Ap     1.135801    15App    1.153755    37Ap     1.169769
      38Ap     1.184991    39Ap     1.261203    16App    1.294858
      40Ap     1.316356    17App    1.527382    41Ap     1.586839
      18App    1.597772    42Ap     1.715935    43Ap     1.809612
      44Ap     1.842635    45Ap     1.977538    19App    1.977719
      46Ap     1.978705    20App    2.013211    47Ap     2.018007
      21App    2.048495    48Ap     2.061090    22App    2.122649
      49Ap     2.153030    50Ap     2.175866    23App    2.212592
      24App    2.302993    51Ap     2.310550    52Ap     2.338862
      53Ap     2.414824    25App    2.441330    54Ap     2.459656
      55Ap     2.490464    26App    2.526514    56Ap     2.628818
      57Ap     2.708772    27App    2.727444    58Ap     2.736180
      59Ap     2.860434    60Ap     2.932396    28App    2.943514
      61Ap     3.696545    62Ap     3.890693    29App    4.035994
      30App    4.062926    63Ap     4.074214    31App    4.177514
      64Ap     4.208276    65Ap     4.264992    32App    4.301794
      33App    4.391003    66Ap     4.407698    34App    4.429635
      67Ap     4.445436    68Ap     4.602308    69Ap     4.779360
      70Ap     4.958019    35App    5.154913    71Ap     5.171051
      72Ap     5.297962    73Ap     5.388932    36App    5.524957
      74Ap     5.690101    75Ap     6.188697    37App    6.312354
      76Ap     6.312386    38App    6.375500    77Ap     6.378181
      39App    6.518199    78Ap     6.519764    79Ap     6.559361
      80Ap     6.637060    40App    6.735733    81Ap     6.814458
      41App    6.820008    82Ap     6.921350    42App    6.936787
      83Ap     6.961494    84Ap     7.050937    43App    7.148012
      44App    7.272109    45App    7.325119    85Ap     7.325439
      86Ap     7.363381    46App    7.435093    87Ap     7.646221
      88Ap     7.944296    89Ap     7.960975    90Ap     8.809385
      91Ap     9.515601    92Ap    16.292541

    Beta Occupied:

       1Ap   -20.654296     2Ap   -20.558928     3Ap    -1.343409
       4Ap    -1.099945     5Ap    -0.709271     6Ap    -0.579965
       7Ap    -0.541208     1App   -0.501928

    Beta Virtual:

       8Ap     0.034369     2App    0.049355     9Ap     0.049604
      10Ap     0.055182    11Ap     0.143822    12Ap     0.152972
       3App    0.161246    13Ap     0.178100    14Ap     0.207807
      15Ap     0.225481     4App    0.227187    16Ap     0.250657
      17Ap     0.265607     5App    0.286680    18Ap     0.306028
       6App    0.324328    19Ap     0.368105    20Ap     0.417231
      21Ap     0.461843    22Ap     0.572182    23Ap     0.627802
       7App    0.635010    24Ap     0.640443    25Ap     0.686750
      26Ap     0.715332     8App    0.721523     9App    0.739814
      10App    0.750518    27Ap     0.767257    28Ap     0.817992
      29Ap     0.868041    11App    0.869091    30Ap     0.919933
      12App    0.941810    31Ap     0.941874    13App    0.949706
      32Ap     0.952732    33Ap     0.969975    34Ap     1.017597
      14App    1.020230    35Ap     1.045682    15App    1.156906
      36Ap     1.163624    37Ap     1.173054    38Ap     1.216140
      39Ap     1.264358    16App    1.305455    40Ap     1.325063
      17App    1.528107    41Ap     1.589073    18App    1.599199
      42Ap     1.742247    43Ap     1.815037    44Ap     1.853297
      45Ap     1.986643    46Ap     2.015681    19App    2.015692
      20App    2.053805    47Ap     2.065769    21App    2.170837
      48Ap     2.176196    22App    2.179617    49Ap     2.193952
      50Ap     2.244628    23App    2.249817    24App    2.306379
      51Ap     2.316036    52Ap     2.361510    53Ap     2.419268
      25App    2.444041    54Ap     2.460466    55Ap     2.496777
      26App    2.534978    56Ap     2.636016    57Ap     2.725759
      27App    2.728755    58Ap     2.739638    59Ap     2.862256
      60Ap     2.936818    28App    2.944144    61Ap     3.697234
      62Ap     3.893058    29App    4.038972    30App    4.146227
      63Ap     4.193362    64Ap     4.243331    31App    4.262536
      65Ap     4.276409    32App    4.301850    33App    4.391073
      66Ap     4.411295    34App    4.430300    67Ap     4.489864
      68Ap     4.604825    69Ap     4.781030    70Ap     4.960008
      35App    5.154900    71Ap     5.171349    72Ap     5.298205
      73Ap     5.390138    36App    5.525016    74Ap     5.690445
      75Ap     6.189953    76Ap     6.421206    37App    6.421210
      38App    6.450698    77Ap     6.453393    78Ap     6.534709
      39App    6.572075    79Ap     6.600304    80Ap     6.681991
      40App    6.741662    81Ap     6.923410    41App    7.005112
      82Ap     7.006735    42App    7.045934    83Ap     7.068269
      84Ap     7.130691    43App    7.150610    44App    7.272371
      85Ap     7.325765    45App    7.325810    86Ap     7.364143
      46App    7.435505    87Ap     7.647059    88Ap     7.945185
      89Ap     7.961448    90Ap     8.810939    91Ap     9.590610
      92Ap    16.292809

    Final Occupation by Irrep:
             Ap   App
    DOCC [     7,    1 ]
    SOCC [     1,    1 ]

  @UHF Final Energy:  -150.87444420233587

   => Energetics <=

    Nuclear Repulsion Energy =             22.9056035828835789
    One-Electron Energy =                -253.6066431493167670
    Two-Electron Energy =                  79.8265953640973152
    Total Energy =                       -150.8744442023358943

  UHF NO Occupations:
  HONO-2 :    7 Ap 1.9970280
  HONO-1 :    2App 1.0000000
  HONO-0 :    8 Ap 1.0000000
  LUNO+0 :    9 Ap 0.0029720
  LUNO+1 :   10 Ap 0.0017163
  LUNO+2 :   11 Ap 0.0000024
  LUNO+3 :   12 Ap 0.0000018

Computation Completed

Properties will be evaluated at   0.000000,   0.000000,   0.000000 [a0]

Properties computed using the SCF density matrix

  Nuclear Dipole Moment: [e a0]
     X:    -2.2940      Y:     0.9688      Z:     0.0000

  Electronic Dipole Moment: [e a0]
     X:     2.7575      Y:    -0.2938      Z:     0.0000

  Dipole Moment: [e a0]
     X:     0.4636      Y:     0.6750      Z:     0.0000     Total:     0.8189

  Dipole Moment: [D]
     X:     1.1783      Y:     1.7157      Z:     0.0000     Total:     2.0813

*** tstop() called on c1-11.compute.lan at Tue Mar  9 15:35:38 2021
Module time:
	user time   =      64.03 seconds =       1.07 minutes
	system time =       3.19 seconds =       0.05 minutes
	total time  =          7 seconds =       0.12 minutes
Total time:
	user time   =      64.03 seconds =       1.07 minutes
	system time =       3.19 seconds =       0.05 minutes
	total time  =          7 seconds =       0.12 minutes
 MINTS: Wrapper to libmints.
   by Justin Turney

   Calculation information:
      Number of threads:                12
      Number of atoms:                   4
      Number of AO shells:              46
      Number of SO shells:              46
      Number of primitives:             82
      Number of atomic orbitals:       160
      Number of basis functions:       138

      Number of irreps:                  2
      Integral cutoff                 0.00e+00
      Number of functions per irrep: [  92   46 ]

 OEINTS: Overlap, kinetic, potential, dipole, and quadrupole integrals
         stored in file 35.

      Computing two-electron integrals...done
      Computed 22941112 non-zero two-electron integrals.
        Stored in file 33.

*** tstart() called on c1-11.compute.lan
*** at Tue Mar  9 15:35:41 2021

	Wfn Parameters:
	--------------------
	Wavefunction         = CCSD_T
	Number of irreps     = 2
	Number of MOs        = 138
	Number of active MOs = 136
	AO-Basis             = NONE
	Semicanonical        = false
	Reference            = UHF
	Print Level          = 1

	IRREP	# MOs	# FZDC	# DOCC	# SOCC	# VIRT	# FZVR
	-----	-----	------	------	------	------	------
	 Ap	   92	    2	    5	    1	    84	    0
	 App	   46	    0	    1	    1	    44	    0
	Transforming integrals...
	IWL integrals will be deleted.
	(OO|OO)...
	Presorting SO-basis two-electron integrals.
	Sorting File: SO Ints (nn|nn) nbuckets = 1
	Transforming the one-electron integrals and constructing Fock matrices
	Starting AA/AB first half-transformation.
	Sorting AA/AB half-transformed integrals.
	Starting BB first half-transformation.
	Sorting BB half-transformed integrals.
	First half integral transformation complete.
	Starting AA second half-transformation.
	Starting AB second half-transformation.
	Starting BB second half-transformation.
	Two-electron integral transformation complete.
	(OO|OV)...
	Starting AA second half-transformation.
	Starting AB second half-transformation.
	Starting BB second half-transformation.
	Two-electron integral transformation complete.
	(OO|VV)...
	Starting AA second half-transformation.
	Starting AB second half-transformation.
	Starting BB second half-transformation.
	Two-electron integral transformation complete.
	(OV|OO)...
	Starting AA/AB first half-transformation.
	Sorting AA/AB half-transformed integrals.
	Starting BB first half-transformation.
	Sorting BB half-transformed integrals.
	First half integral transformation complete.
	Starting AA second half-transformation.
	Starting AB second half-transformation.
	Starting BB second half-transformation.
	Two-electron integral transformation complete.
	(OV|OV)...
	Starting AA second half-transformation.
	Starting AB second half-transformation.
	Starting BB second half-transformation.
	Two-electron integral transformation complete.
	(OV|VV)...
	Starting AA second half-transformation.
	Starting AB second half-transformation.
	Starting BB second half-transformation.
	Two-electron integral transformation complete.
	(VV|OO)...
	Starting AA/AB first half-transformation.
	Sorting AA/AB half-transformed integrals.
	Starting BB first half-transformation.
	Sorting BB half-transformed integrals.
	First half integral transformation complete.
	Starting AA second half-transformation.
	Starting AB second half-transformation.
	Starting BB second half-transformation.
	Two-electron integral transformation complete.
	(VV|OV)...
	Starting AA second half-transformation.
	Starting AB second half-transformation.
	Starting BB second half-transformation.
	Two-electron integral transformation complete.
	(VV|VV)...
	Starting AA second half-transformation.
	Starting AB second half-transformation.
	Starting BB second half-transformation.
	Two-electron integral transformation complete.
	Frozen core energy     =   -125.85737427779135

	Size of irrep 0 of <AB|CD> integrals:     19.643 (MW) /    157.141 (MB)
	Size of irrep 1 of <AB|CD> integrals:     13.660 (MW) /    109.283 (MB)
	Total:                                    33.303 (MW) /    266.424 (MB)

	Size of irrep 0 of <ab|cd> integrals:     20.794 (MW) /    166.349 (MB)
	Size of irrep 1 of <ab|cd> integrals:     14.631 (MW) /    117.045 (MB)
	Total:                                    35.424 (MW) /    283.394 (MB)

	Size of irrep 0 of <Ab|Cd> integrals:     83.174 (MW) /    665.395 (MB)
	Size of irrep 1 of <Ab|Cd> integrals:     56.550 (MW) /    452.403 (MB)
	Total:                                   139.725 (MW) /   1117.798 (MB)

	Size of irrep 0 of <IA|BC> integrals:      5.323 (MW) /     42.586 (MB)
	Size of irrep 1 of <IA|BC> integrals:      3.193 (MW) /     25.547 (MB)
	Total:                                     8.517 (MW) /     68.133 (MB)

	Size of irrep 0 of <ia|bc> integrals:      4.348 (MW) /     34.780 (MB)
	Size of irrep 1 of <ia|bc> integrals:      2.372 (MW) /     18.972 (MB)
	Total:                                     6.719 (MW) /     53.752 (MB)

	Size of irrep 0 of <Ia|Bc> integrals:      5.472 (MW) /     43.776 (MB)
	Size of irrep 1 of <Ia|Bc> integrals:      3.309 (MW) /     26.470 (MB)
	Total:                                     8.781 (MW) /     70.246 (MB)

	Size of irrep 0 of <iA|bC> integrals:      4.232 (MW) /     33.853 (MB)
	Size of irrep 1 of <iA|bC> integrals:      2.286 (MW) /     18.289 (MB)
	Total:                                     6.518 (MW) /     52.142 (MB)

	Size of irrep 0 of tIjAb amplitudes:       0.292 (MW) /      2.335 (MB)
	Size of irrep 1 of tIjAb amplitudes:       0.120 (MW) /      0.963 (MB)
	Total:                                     0.412 (MW) /      3.297 (MB)

	Nuclear Rep. energy          =     22.90560358288358
	SCF energy                   =   -150.87444420233587
	One-electron energy          =    -84.39699894144717
	Two-electron (AA) energy     =     10.13612236209035
	Two-electron (BB) energy     =      5.39193236448819
	Two-electron (AB) energy     =     20.94627070743906
	Two-electron energy          =     36.47432543401760
	Reference energy             =   -150.87444420233734

*** tstop() called on c1-11.compute.lan at Tue Mar  9 15:36:22 2021
Module time:
	user time   =     105.46 seconds =       1.76 minutes
	system time =      26.02 seconds =       0.43 minutes
	total time  =         41 seconds =       0.68 minutes
Total time:
	user time   =     175.54 seconds =       2.93 minutes
	system time =      29.97 seconds =       0.50 minutes
	total time  =         51 seconds =       0.85 minutes
            **************************
            *                        *
            *        CCENERGY        *
            *                        *
            **************************

    Nuclear Rep. energy (wfn)     =   22.905603582883579
    SCF energy          (wfn)     = -150.874444202335866
    Reference energy    (file100) = -150.874444202337344

    Input parameters:
    -----------------
    Wave function   =     CCSD_T
    Reference wfn   =     UHF
    Brueckner       =     No
    Memory (Mbytes) =     4000.0
    Maxiter         =     50
    R_Convergence   =     1.0e-10
    E_Convergence   =     1.0e-10
    Restart         =     Yes
    DIIS            =     Yes
    AO Basis        =     NONE
    ABCD            =     NEW
    Cache Level     =     2
    Cache Type      =     LRU
    Print Level     =     1
    Num. of threads =     12
    # Amps to Print =     10
    Print MP2 Amps? =     No
    Analyze T2 Amps =     No
    Print Pair Ener =     No
    Local CC        =     No
    SCS-MP2         =     False
    SCSN-MP2        =     False
    SCS-CCSD        =     False

MP2 correlation energy -0.4166413357893829
                Solving CC Amplitude Equations
                ------------------------------
  Iter             Energy              RMS        T1Diag      D1Diag    New D1Diag    D2Diag
  ----     ---------------------    ---------   ----------  ----------  ----------   --------
     0        -0.416641335789383    0.000e+00    0.000000    0.000000    0.000000    0.000000
     1        -0.427351700580077    5.691e-02    0.010557    0.000000    0.000000    0.000000
     2        -0.435443539438382    1.690e-02    0.011036    0.000000    0.000000    0.000000
     3        -0.437566790574675    8.579e-03    0.012908    0.000000    0.000000    0.000000
     4        -0.437440918604470    2.536e-03    0.013276    0.000000    0.000000    0.000000
     5        -0.437426451590171    1.321e-03    0.013432    0.000000    0.000000    0.000000
     6        -0.437453681902331    5.150e-04    0.013454    0.000000    0.000000    0.000000
     7        -0.437458315165127    2.648e-04    0.013449    0.000000    0.000000    0.000000
     8        -0.437458917577247    9.956e-05    0.013444    0.000000    0.000000    0.000000
     9        -0.437460291307899    7.424e-05    0.013445    0.000000    0.000000    0.000000
    10        -0.437458730740748    6.409e-05    0.013446    0.000000    0.000000    0.000000
    11        -0.437458877700785    6.123e-05    0.013447    0.000000    0.000000    0.000000
    12        -0.437458589672642    5.954e-05    0.013450    0.000000    0.000000    0.000000
    13        -0.437458582983492    5.840e-05    0.013453    0.000000    0.000000    0.000000
    14        -0.437459755277092    5.653e-05    0.013471    0.000000    0.000000    0.000000
    15        -0.437460132395648    5.003e-05    0.013543    0.000000    0.000000    0.000000
    16        -0.437459908672130    3.348e-05    0.013682    0.000000    0.000000    0.000000
    17        -0.437459562697041    1.617e-05    0.013751    0.000000    0.000000    0.000000
    18        -0.437459432550313    7.586e-06    0.013768    0.000000    0.000000    0.000000
    19        -0.437459691790708    3.353e-06    0.013773    0.000000    0.000000    0.000000
    20        -0.437459803495849    1.502e-06    0.013774    0.000000    0.000000    0.000000
    21        -0.437459811479279    5.918e-07    0.013774    0.000000    0.000000    0.000000
    22        -0.437459812783945    2.810e-07    0.013774    0.000000    0.000000    0.000000
    23        -0.437459811682607    1.459e-07    0.013774    0.000000    0.000000    0.000000
    24        -0.437459811006680    6.056e-08    0.013774    0.000000    0.000000    0.000000
    25        -0.437459811970955    3.308e-08    0.013774    0.000000    0.000000    0.000000
    26        -0.437459812430337    2.567e-08    0.013774    0.000000    0.000000    0.000000
    27        -0.437459812588707    2.404e-08    0.013774    0.000000    0.000000    0.000000
    28        -0.437459812536494    2.330e-08    0.013774    0.000000    0.000000    0.000000
    29        -0.437459812372416    2.263e-08    0.013774    0.000000    0.000000    0.000000
    30        -0.437459812104964    2.154e-08    0.013774    0.000000    0.000000    0.000000
    31        -0.437459812302083    1.824e-08    0.013774    0.000000    0.000000    0.000000
    32        -0.437459812647489    9.579e-09    0.013774    0.000000    0.000000    0.000000
    33        -0.437459812750062    4.192e-09    0.013774    0.000000    0.000000    0.000000
    34        -0.437459812802431    1.712e-09    0.013774    0.000000    0.000000    0.000000
    35        -0.437459812809231    6.729e-10    0.013774    0.000000    0.000000    0.000000
    36        -0.437459812808981    2.882e-10    0.013774    0.000000    0.000000    0.000000

      * MP2 total energy                      = -151.291085538126737
      * CCSD total energy                     = -151.311904015145643
      * CCSD(T) total energy                     = -151.324262796290213
*** Psi4 exiting successfully. Buy a developer a beer!
