                               Psi4 1.3.2 release

  ==> Input File <==

--------------------------------------------------------------------------
memory 4 GB

molecule  {
0 3
O   -1.504118848002   -0.001213898208    0.000000000000
H   -0.554213804302    0.154335200529    0.000000000000
H   -1.894090136918    0.878500939843    0.000000000000
O    1.658384254048   -0.063864168241    0.000000000000
}
set {
basis aug-cc-pvtz
reference uhf
e_convergence 10
scf_type pk
freeze_core true
}

set ccenergy {
e_convergence 10
r_convergence 10
}

e = energy('ccsd(t)')

print_out('Stephenergy {}'.format(e))

--------------------------------------------------------------------------

    Molecular point group: cs

    Geometry (in Angstrom), charge = 0, multiplicity = 3:

       Center              X                  Y                   Z               Mass
    ------------   -----------------  -----------------  -----------------  -----------------
         O           -1.504118848002    -0.001213898208     0.000000000000    15.994914619570
         H           -0.554213804302     0.154335200529     0.000000000000     1.007825032230
         H           -1.894090136918     0.878500939843     0.000000000000     1.007825032230
         O            1.658384254048    -0.063864168241     0.000000000000    15.994914619570

  Charge       = 0
  Multiplicity = 3
  Basis Set: AUG-CC-PVTZ
    Blend: AUG-CC-PVTZ

    Orbital Energies [Eh]
    ---------------------

    Alpha Occupied:

       1Ap   -20.733066     2Ap   -20.558768     3Ap    -1.442399
       4Ap    -1.342700     5Ap    -0.733168     1App   -0.732793
       6Ap    -0.710258     7Ap    -0.634451     8Ap    -0.574715
       2App   -0.501844

    Alpha Virtual:

       9Ap     0.034209    10Ap     0.053476    11Ap     0.128176
       3App    0.132915    12Ap     0.148139    13Ap     0.160750
      14Ap     0.183908     4App    0.186820    15Ap     0.214136
      16Ap     0.242008    17Ap     0.264341     5App    0.286385
      18Ap     0.303868     6App    0.320759    19Ap     0.364530
      20Ap     0.406135    21Ap     0.460318    22Ap     0.568557
       7App    0.602597    23Ap     0.608709    24Ap     0.627356
      25Ap     0.681589     8App    0.709601    26Ap     0.714782
       9App    0.736648    10App    0.748657    27Ap     0.751182
      28Ap     0.811606    11App    0.826013    29Ap     0.836935
      12App    0.890783    30Ap     0.891492    31Ap     0.923011
      32Ap     0.945077    13App    0.947726    33Ap     0.951269
      14App    0.971718    34Ap     0.979060    35Ap     1.043008
      36Ap     1.135707    15App    1.153881    37Ap     1.170044
      38Ap     1.185420    39Ap     1.260931    16App    1.294851
      40Ap     1.316665    17App    1.527219    41Ap     1.587505
      18App    1.598242    42Ap     1.715210    43Ap     1.809535
      44Ap     1.841882    45Ap     1.977462    19App    1.977721
      46Ap     1.978287    20App    2.013207    47Ap     2.017990
      21App    2.048486    48Ap     2.060776    22App    2.122711
      49Ap     2.152987    50Ap     2.176034    23App    2.212730
      24App    2.302600    51Ap     2.311285    52Ap     2.338513
      53Ap     2.414880    25App    2.441682    54Ap     2.458219
      55Ap     2.491571    26App    2.526582    56Ap     2.630074
      57Ap     2.710347    27App    2.727657    58Ap     2.736144
      59Ap     2.860235    60Ap     2.933725    28App    2.943170
      61Ap     3.695004    62Ap     3.892022    29App    4.035396
      30App    4.062790    63Ap     4.074241    31App    4.177752
      64Ap     4.209528    65Ap     4.264239    32App    4.303159
      33App    4.391028    66Ap     4.408630    34App    4.429603
      67Ap     4.444929    68Ap     4.601335    69Ap     4.777779
      70Ap     4.956912    35App    5.155044    71Ap     5.169655
      72Ap     5.298866    73Ap     5.388923    36App    5.524168
      74Ap     5.691927    75Ap     6.187560    37App    6.312359
      76Ap     6.312390    38App    6.375488    77Ap     6.378212
      39App    6.518375    78Ap     6.519970    79Ap     6.559731
      80Ap     6.637290    40App    6.735535    81Ap     6.814406
      41App    6.820053    82Ap     6.919712    42App    6.936868
      83Ap     6.961303    84Ap     7.050956    43App    7.148253
      44App    7.271518    45App    7.324792    85Ap     7.326201
      86Ap     7.363613    46App    7.435500    87Ap     7.647184
      88Ap     7.946595    89Ap     7.959203    90Ap     8.807849
      91Ap     9.515349    92Ap    16.300688

    Beta Occupied:

       1Ap   -20.654282     2Ap   -20.558898     3Ap    -1.343274
       4Ap    -1.099933     5Ap    -0.709459     6Ap    -0.579708
       7Ap    -0.541199     1App   -0.501887

    Beta Virtual:

       8Ap     0.034362     2App    0.049366     9Ap     0.049595
      10Ap     0.055195    11Ap     0.143848    12Ap     0.152935
       3App    0.161208    13Ap     0.178046    14Ap     0.207829
      15Ap     0.225448     4App    0.227201    16Ap     0.250747
      17Ap     0.265601     5App    0.286593    18Ap     0.306010
       6App    0.324505    19Ap     0.368430    20Ap     0.417025
      21Ap     0.461590    22Ap     0.572128    23Ap     0.628118
       7App    0.634992    24Ap     0.640443    25Ap     0.686360
      26Ap     0.715439     8App    0.721674     9App    0.739781
      10App    0.750357    27Ap     0.767772    28Ap     0.817982
      29Ap     0.867457    11App    0.868970    30Ap     0.920043
      12App    0.941735    31Ap     0.941881    13App    0.949840
      32Ap     0.952650    33Ap     0.970323    34Ap     1.017642
      14App    1.020199    35Ap     1.045319    15App    1.157027
      36Ap     1.163541    37Ap     1.173485    38Ap     1.216316
      39Ap     1.264102    16App    1.305454    40Ap     1.325364
      17App    1.527926    41Ap     1.589772    18App    1.599692
      42Ap     1.741496    43Ap     1.814867    44Ap     1.852678
      45Ap     1.985921    46Ap     2.015687    19App    2.015697
      20App    2.053785    47Ap     2.065538    21App    2.170874
      48Ap     2.176115    22App    2.179633    49Ap     2.194143
      50Ap     2.244766    23App    2.249947    24App    2.306013
      51Ap     2.316751    52Ap     2.361187    53Ap     2.419321
      25App    2.444377    54Ap     2.459035    55Ap     2.497880
      26App    2.535044    56Ap     2.637225    57Ap     2.727111
      27App    2.728976    58Ap     2.739837    59Ap     2.862065
      60Ap     2.938144    28App    2.943798    61Ap     3.695686
      62Ap     3.894389    29App    4.038230    30App    4.146409
      63Ap     4.194134    64Ap     4.243692    31App    4.262587
      65Ap     4.275817    32App    4.303211    33App    4.391097
      66Ap     4.412284    34App    4.430285    67Ap     4.489280
      68Ap     4.603865    69Ap     4.779410    70Ap     4.958914
      35App    5.155031    71Ap     5.169954    72Ap     5.299103
      73Ap     5.390156    36App    5.524230    74Ap     5.692278
      75Ap     6.188796    76Ap     6.421213    37App    6.421217
      38App    6.450681    77Ap     6.453439    78Ap     6.535043
      39App    6.572259    79Ap     6.600540    80Ap     6.682235
      40App    6.741461    81Ap     6.921403    41App    7.005162
      82Ap     7.006746    42App    7.046075    83Ap     7.068346
      84Ap     7.130720    43App    7.150765    44App    7.271749
      45App    7.325528    85Ap     7.326499    86Ap     7.364402
      46App    7.435911    87Ap     7.648045    88Ap     7.947561
      89Ap     7.959586    90Ap     8.809386    91Ap     9.590361
      92Ap    16.300965

    Final Occupation by Irrep:
             Ap   App
    DOCC [     7,    1 ]
    SOCC [     1,    1 ]

  @UHF Final Energy:  -150.87444438747468

   => Energetics <=

    Nuclear Repulsion Energy =             22.9077824214180517
    One-Electron Energy =                -253.6116508867449397
    Two-Electron Energy =                  79.8294240778521811
    Total Energy =                       -150.8744443874746821

  UHF NO Occupations:
  HONO-2 :    7 Ap 1.9970282
  HONO-1 :    8 Ap 1.0000000
  HONO-0 :    2App 1.0000000
  LUNO+0 :    9 Ap 0.0029718
  LUNO+1 :   10 Ap 0.0017157
  LUNO+2 :   11 Ap 0.0000024
  LUNO+3 :   12 Ap 0.0000017

Computation Completed

Properties will be evaluated at   0.000000,   0.000000,   0.000000 [a0]

Properties computed using the SCF density matrix

  Nuclear Dipole Moment: [e a0]
     X:    -2.2945      Y:     0.9679      Z:     0.0000

  Electronic Dipole Moment: [e a0]
     X:     2.7575      Y:    -0.2936      Z:     0.0000

  Dipole Moment: [e a0]
     X:     0.4630      Y:     0.6744      Z:     0.0000     Total:     0.8180

  Dipole Moment: [D]
     X:     1.1768      Y:     1.7141      Z:     0.0000     Total:     2.0792

*** tstop() called on d2-22.compute.lan at Tue Mar  9 15:35:38 2021
Module time:
	user time   =      54.76 seconds =       0.91 minutes
	system time =       2.44 seconds =       0.04 minutes
	total time  =          6 seconds =       0.10 minutes
Total time:
	user time   =      54.76 seconds =       0.91 minutes
	system time =       2.44 seconds =       0.04 minutes
	total time  =          6 seconds =       0.10 minutes
 MINTS: Wrapper to libmints.
   by Justin Turney

   Calculation information:
      Number of threads:                12
      Number of atoms:                   4
      Number of AO shells:              46
      Number of SO shells:              46
      Number of primitives:             82
      Number of atomic orbitals:       160
      Number of basis functions:       138

      Number of irreps:                  2
      Integral cutoff                 0.00e+00
      Number of functions per irrep: [  92   46 ]

 OEINTS: Overlap, kinetic, potential, dipole, and quadrupole integrals
         stored in file 35.

      Computing two-electron integrals...done
      Computed 22928567 non-zero two-electron integrals.
        Stored in file 33.

*** tstart() called on d2-22.compute.lan
*** at Tue Mar  9 15:35:42 2021

	Wfn Parameters:
	--------------------
	Wavefunction         = CCSD_T
	Number of irreps     = 2
	Number of MOs        = 138
	Number of active MOs = 136
	AO-Basis             = NONE
	Semicanonical        = false
	Reference            = UHF
	Print Level          = 1

	IRREP	# MOs	# FZDC	# DOCC	# SOCC	# VIRT	# FZVR
	-----	-----	------	------	------	------	------
	 Ap	   92	    2	    5	    1	    84	    0
	 App	   46	    0	    1	    1	    44	    0
	Transforming integrals...
	IWL integrals will be deleted.
	(OO|OO)...
	Presorting SO-basis two-electron integrals.
	Sorting File: SO Ints (nn|nn) nbuckets = 1
	Transforming the one-electron integrals and constructing Fock matrices
	Starting AA/AB first half-transformation.
	Sorting AA/AB half-transformed integrals.
	Starting BB first half-transformation.
	Sorting BB half-transformed integrals.
	First half integral transformation complete.
	Starting AA second half-transformation.
	Starting AB second half-transformation.
	Starting BB second half-transformation.
	Two-electron integral transformation complete.
	(OO|OV)...
	Starting AA second half-transformation.
	Starting AB second half-transformation.
	Starting BB second half-transformation.
	Two-electron integral transformation complete.
	(OO|VV)...
	Starting AA second half-transformation.
	Starting AB second half-transformation.
	Starting BB second half-transformation.
	Two-electron integral transformation complete.
	(OV|OO)...
	Starting AA/AB first half-transformation.
	Sorting AA/AB half-transformed integrals.
	Starting BB first half-transformation.
	Sorting BB half-transformed integrals.
	First half integral transformation complete.
	Starting AA second half-transformation.
	Starting AB second half-transformation.
	Starting BB second half-transformation.
	Two-electron integral transformation complete.
	(OV|OV)...
	Starting AA second half-transformation.
	Starting AB second half-transformation.
	Starting BB second half-transformation.
	Two-electron integral transformation complete.
	(OV|VV)...
	Starting AA second half-transformation.
	Starting AB second half-transformation.
	Starting BB second half-transformation.
	Two-electron integral transformation complete.
	(VV|OO)...
	Starting AA/AB first half-transformation.
	Sorting AA/AB half-transformed integrals.
	Starting BB first half-transformation.
	Sorting BB half-transformed integrals.
	First half integral transformation complete.
	Starting AA second half-transformation.
	Starting AB second half-transformation.
	Starting BB second half-transformation.
	Two-electron integral transformation complete.
	(VV|OV)...
	Starting AA second half-transformation.
	Starting AB second half-transformation.
	Starting BB second half-transformation.
	Two-electron integral transformation complete.
	(VV|VV)...
	Starting AA second half-transformation.
	Starting AB second half-transformation.
	Starting BB second half-transformation.
	Two-electron integral transformation complete.
	Frozen core energy     =   -125.85858941123260

	Size of irrep 0 of <AB|CD> integrals:     19.643 (MW) /    157.141 (MB)
	Size of irrep 1 of <AB|CD> integrals:     13.660 (MW) /    109.283 (MB)
	Total:                                    33.303 (MW) /    266.424 (MB)

	Size of irrep 0 of <ab|cd> integrals:     20.794 (MW) /    166.349 (MB)
	Size of irrep 1 of <ab|cd> integrals:     14.631 (MW) /    117.045 (MB)
	Total:                                    35.424 (MW) /    283.394 (MB)

	Size of irrep 0 of <Ab|Cd> integrals:     83.174 (MW) /    665.395 (MB)
	Size of irrep 1 of <Ab|Cd> integrals:     56.550 (MW) /    452.403 (MB)
	Total:                                   139.725 (MW) /   1117.798 (MB)

	Size of irrep 0 of <IA|BC> integrals:      5.323 (MW) /     42.586 (MB)
	Size of irrep 1 of <IA|BC> integrals:      3.193 (MW) /     25.547 (MB)
	Total:                                     8.517 (MW) /     68.133 (MB)

	Size of irrep 0 of <ia|bc> integrals:      4.348 (MW) /     34.780 (MB)
	Size of irrep 1 of <ia|bc> integrals:      2.372 (MW) /     18.972 (MB)
	Total:                                     6.719 (MW) /     53.752 (MB)

	Size of irrep 0 of <Ia|Bc> integrals:      5.472 (MW) /     43.776 (MB)
	Size of irrep 1 of <Ia|Bc> integrals:      3.309 (MW) /     26.470 (MB)
	Total:                                     8.781 (MW) /     70.246 (MB)

	Size of irrep 0 of <iA|bC> integrals:      4.232 (MW) /     33.853 (MB)
	Size of irrep 1 of <iA|bC> integrals:      2.286 (MW) /     18.289 (MB)
	Total:                                     6.518 (MW) /     52.142 (MB)

	Size of irrep 0 of tIjAb amplitudes:       0.292 (MW) /      2.335 (MB)
	Size of irrep 1 of tIjAb amplitudes:       0.120 (MW) /      0.963 (MB)
	Total:                                     0.412 (MW) /      3.297 (MB)

	Nuclear Rep. energy          =     22.90778242141805
	SCF energy                   =   -150.87444438747468
	One-electron energy          =    -84.39948570988763
	Two-electron (AA) energy     =     10.13667213650485
	Two-electron (BB) energy     =      5.39218604228214
	Two-electron (AB) energy     =     20.94699013343929
	Two-electron energy          =     36.47584831222628
	Reference energy             =   -150.87444438747588

*** tstop() called on d2-22.compute.lan at Tue Mar  9 15:36:21 2021
Module time:
	user time   =     218.16 seconds =       3.64 minutes
	system time =      17.93 seconds =       0.30 minutes
	total time  =         39 seconds =       0.65 minutes
Total time:
	user time   =     280.28 seconds =       4.67 minutes
	system time =      21.24 seconds =       0.35 minutes
	total time  =         49 seconds =       0.82 minutes
            **************************
            *                        *
            *        CCENERGY        *
            *                        *
            **************************

    Nuclear Rep. energy (wfn)     =   22.907782421418052
    SCF energy          (wfn)     = -150.874444387474682
    Reference energy    (file100) = -150.874444387475876

    Input parameters:
    -----------------
    Wave function   =     CCSD_T
    Reference wfn   =     UHF
    Brueckner       =     No
    Memory (Mbytes) =     4000.0
    Maxiter         =     50
    R_Convergence   =     1.0e-10
    E_Convergence   =     1.0e-10
    Restart         =     Yes
    DIIS            =     Yes
    AO Basis        =     NONE
    ABCD            =     NEW
    Cache Level     =     2
    Cache Type      =     LRU
    Print Level     =     1
    Num. of threads =     12
    # Amps to Print =     10
    Print MP2 Amps? =     No
    Analyze T2 Amps =     No
    Print Pair Ener =     No
    Local CC        =     No
    SCS-MP2         =     False
    SCSN-MP2        =     False
    SCS-CCSD        =     False

MP2 correlation energy -0.4166391764507703
                Solving CC Amplitude Equations
                ------------------------------
  Iter             Energy              RMS        T1Diag      D1Diag    New D1Diag    D2Diag
  ----     ---------------------    ---------   ----------  ----------  ----------   --------
     0        -0.416639176450770    0.000e+00    0.000000    0.000000    0.000000    0.000000
     1        -0.427350357585506    5.691e-02    0.010558    0.000000    0.000000    0.000000
     2        -0.435442493702866    1.690e-02    0.011036    0.000000    0.000000    0.000000
     3        -0.437565964690984    8.580e-03    0.012908    0.000000    0.000000    0.000000
     4        -0.437440131494908    2.536e-03    0.013276    0.000000    0.000000    0.000000
     5        -0.437425642264852    1.321e-03    0.013432    0.000000    0.000000    0.000000
     6        -0.437452877937101    5.150e-04    0.013455    0.000000    0.000000    0.000000
     7        -0.437457511825166    2.650e-04    0.013449    0.000000    0.000000    0.000000
     8        -0.437458113157583    9.967e-05    0.013445    0.000000    0.000000    0.000000
     9        -0.437459487417359    7.436e-05    0.013446    0.000000    0.000000    0.000000
    10        -0.437457926049260    6.421e-05    0.013447    0.000000    0.000000    0.000000
    11        -0.437458072788041    6.135e-05    0.013448    0.000000    0.000000    0.000000
    12        -0.437457785089309    5.965e-05    0.013450    0.000000    0.000000    0.000000
    13        -0.437457777194909    5.851e-05    0.013454    0.000000    0.000000    0.000000
    14        -0.437458952232624    5.664e-05    0.013472    0.000000    0.000000    0.000000
    15        -0.437459331488212    5.012e-05    0.013544    0.000000    0.000000    0.000000
    16        -0.437459107115138    3.352e-05    0.013684    0.000000    0.000000    0.000000
    17        -0.437458761496621    1.619e-05    0.013753    0.000000    0.000000    0.000000
    18        -0.437458631168598    7.593e-06    0.013771    0.000000    0.000000    0.000000
    19        -0.437458890322523    3.356e-06    0.013775    0.000000    0.000000    0.000000
    20        -0.437459002168254    1.504e-06    0.013776    0.000000    0.000000    0.000000
    21        -0.437459010116708    5.926e-07    0.013776    0.000000    0.000000    0.000000
    22        -0.437459011425992    2.813e-07    0.013776    0.000000    0.000000    0.000000
    23        -0.437459010328579    1.460e-07    0.013776    0.000000    0.000000    0.000000
    24        -0.437459009647158    6.058e-08    0.013776    0.000000    0.000000    0.000000
    25        -0.437459010612402    3.306e-08    0.013776    0.000000    0.000000    0.000000
    26        -0.437459011071713    2.564e-08    0.013776    0.000000    0.000000    0.000000
    27        -0.437459011230163    2.401e-08    0.013776    0.000000    0.000000    0.000000
    28        -0.437459011178296    2.327e-08    0.013776    0.000000    0.000000    0.000000
    29        -0.437459011014981    2.260e-08    0.013776    0.000000    0.000000    0.000000
    30        -0.437459010748315    2.152e-08    0.013776    0.000000    0.000000    0.000000
    31        -0.437459010943789    1.824e-08    0.013777    0.000000    0.000000    0.000000
    32        -0.437459011289196    9.602e-09    0.013777    0.000000    0.000000    0.000000
    33        -0.437459011391923    4.201e-09    0.013777    0.000000    0.000000    0.000000
    34        -0.437459011444523    1.717e-09    0.013777    0.000000    0.000000    0.000000
    35        -0.437459011451343    6.748e-10    0.013777    0.000000    0.000000    0.000000
    36        -0.437459011451119    2.887e-10    0.013777    0.000000    0.000000    0.000000

      * MP2 total energy                      = -151.291083563926634
      * CCSD total energy                     = -151.311903398926319
      * CCSD(T) total energy                     = -151.324262217375576
*** Psi4 exiting successfully. Buy a developer a beer!
