                               Psi4 1.3.2 release

  ==> Input File <==

--------------------------------------------------------------------------
memory 4 GB

molecule  {
0 3
O   -1.504262781504   -0.001191536185    0.000000000000
H   -0.551820343479    0.156573493462    0.000000000000
H   -1.892250828173    0.876458443935    0.000000000000
O    1.658261484588   -0.063898867256    0.000000000000
}
set {
basis aug-cc-pvtz
reference uhf
e_convergence 10
scf_type pk
freeze_core true
}

set ccenergy {
e_convergence 10
r_convergence 10
}

e = energy('ccsd(t)')

print_out('Stephenergy {}'.format(e))

--------------------------------------------------------------------------

    Molecular point group: cs

    Geometry (in Angstrom), charge = 0, multiplicity = 3:

       Center              X                  Y                   Z               Mass
    ------------   -----------------  -----------------  -----------------  -----------------
         O           -1.504262781504    -0.001191536185     0.000000000000    15.994914619570
         H           -0.551820343479     0.156573493462     0.000000000000     1.007825032230
         H           -1.892250828173     0.876458443935     0.000000000000     1.007825032230
         O            1.658261484588    -0.063898867256     0.000000000000    15.994914619570

  Charge       = 0
  Multiplicity = 3
  Basis Set: AUG-CC-PVTZ
    Blend: AUG-CC-PVTZ

    Orbital Energies [Eh]
    ---------------------

    Alpha Occupied:

       1Ap   -20.733189     2Ap   -20.558786     3Ap    -1.442523
       4Ap    -1.342736     5Ap    -0.733287     1App   -0.732911
       6Ap    -0.709902     7Ap    -0.634583     8Ap    -0.574924
       2App   -0.501833

    Alpha Virtual:

       9Ap     0.034228    10Ap     0.053472    11Ap     0.128159
       3App    0.132917    12Ap     0.148128    13Ap     0.160809
      14Ap     0.183981     4App    0.186849    15Ap     0.214139
      16Ap     0.241892    17Ap     0.264472     5App    0.286536
      18Ap     0.303886     6App    0.320555    19Ap     0.364007
      20Ap     0.406388    21Ap     0.460866    22Ap     0.568634
       7App    0.602542    23Ap     0.608602    24Ap     0.627027
      25Ap     0.681825     8App    0.709601    26Ap     0.714648
       9App    0.736689    10App    0.748960    27Ap     0.750781
      28Ap     0.811769    11App    0.826000    29Ap     0.836954
      12App    0.890872    30Ap     0.892238    31Ap     0.922732
      32Ap     0.945333    13App    0.947583    33Ap     0.951452
      14App    0.972175    34Ap     0.978334    35Ap     1.043977
      36Ap     1.135663    15App    1.153954    37Ap     1.169614
      38Ap     1.184950    39Ap     1.261834    16App    1.295034
      40Ap     1.316468    17App    1.527565    41Ap     1.586538
      18App    1.597548    42Ap     1.716590    43Ap     1.809675
      44Ap     1.843124    45Ap     1.977504    19App    1.977638
      46Ap     1.979065    20App    2.013169    47Ap     2.017980
      21App    2.048687    48Ap     2.061670    22App    2.122984
      49Ap     2.153496    50Ap     2.175966    23App    2.212952
      24App    2.303364    51Ap     2.309864    52Ap     2.339512
      53Ap     2.414946    25App    2.441428    54Ap     2.461132
      55Ap     2.490427    26App    2.526752    56Ap     2.628532
      57Ap     2.707582    27App    2.727549    58Ap     2.736900
      59Ap     2.860826    60Ap     2.931365    28App    2.943937
      61Ap     3.697964    62Ap     3.890215    29App    4.036162
      30App    4.062938    63Ap     4.074278    31App    4.177377
      64Ap     4.207587    65Ap     4.265243    32App    4.301307
      33App    4.390953    66Ap     4.407553    34App    4.429512
      67Ap     4.445394    68Ap     4.602525    69Ap     4.780260
      70Ap     4.958498    35App    5.154257    71Ap     5.170624
      72Ap     5.297714    73Ap     5.388017    36App    5.524654
      74Ap     5.689000    75Ap     6.188733    37App    6.312258
      76Ap     6.312289    38App    6.375551    77Ap     6.378220
      39App    6.518756    78Ap     6.520316    79Ap     6.559483
      80Ap     6.637471    40App    6.735752    81Ap     6.814402
      41App    6.819914    82Ap     6.921648    42App    6.936714
      83Ap     6.961663    84Ap     7.050989    43App    7.147680
      44App    7.272358    45App    7.324864    85Ap     7.325154
      86Ap     7.362789    46App    7.435370    87Ap     7.645653
      88Ap     7.942272    89Ap     7.961928    90Ap     8.808832
      91Ap     9.519213    92Ap    16.281982

    Beta Occupied:

       1Ap   -20.654402     2Ap   -20.558918     3Ap    -1.343316
       4Ap    -1.100056     5Ap    -0.709080     6Ap    -0.580039
       7Ap    -0.541239     1App   -0.501879

    Beta Virtual:

       8Ap     0.034381     2App    0.049283     9Ap     0.049539
      10Ap     0.055174    11Ap     0.143840    12Ap     0.152957
       3App    0.161271    13Ap     0.178156    14Ap     0.207799
      15Ap     0.225471     4App    0.227138    16Ap     0.250604
      17Ap     0.265712     5App    0.286744    18Ap     0.306020
       6App    0.324314    19Ap     0.367902    20Ap     0.417341
      21Ap     0.462103    22Ap     0.572217    23Ap     0.627734
       7App    0.634933    24Ap     0.640425    25Ap     0.686625
      26Ap     0.715309     8App    0.721637     9App    0.739845
      10App    0.750679    27Ap     0.767282    28Ap     0.818129
      29Ap     0.868121    11App    0.869162    30Ap     0.919926
      12App    0.941936    31Ap     0.941979    13App    0.949700
      32Ap     0.952784    33Ap     0.969851    34Ap     1.017654
      14App    1.020324    35Ap     1.046131    15App    1.157119
      36Ap     1.163766    37Ap     1.172937    38Ap     1.215755
      39Ap     1.264970    16App    1.305633    40Ap     1.325202
      17App    1.528313    41Ap     1.588770    18App    1.598962
      42Ap     1.742834    43Ap     1.815185    44Ap     1.853790
      45Ap     1.987231    46Ap     2.015598    19App    2.015610
      20App    2.053987    47Ap     2.066255    21App    2.171341
      48Ap     2.176315    22App    2.179590    49Ap     2.194144
      50Ap     2.244836    23App    2.249998    24App    2.306732
      51Ap     2.315355    52Ap     2.362030    53Ap     2.419335
      25App    2.444142    54Ap     2.461940    55Ap     2.496763
      26App    2.535233    56Ap     2.635778    57Ap     2.724440
      27App    2.728862    58Ap     2.740614    59Ap     2.862644
      60Ap     2.935739    28App    2.944571    61Ap     3.698666
      62Ap     3.892604    29App    4.039146    30App    4.146083
      63Ap     4.193078    64Ap     4.242700    31App    4.262551
      65Ap     4.276939    32App    4.301365    33App    4.391023
      66Ap     4.411169    34App    4.430171    67Ap     4.489821
      68Ap     4.604999    69Ap     4.781950    70Ap     4.960499
      35App    5.154244    71Ap     5.170936    72Ap     5.297964
      73Ap     5.389204    36App    5.524713    74Ap     5.689341
      75Ap     6.190005    76Ap     6.421109    37App    6.421113
      38App    6.450753    77Ap     6.453419    78Ap     6.534944
      39App    6.572612    79Ap     6.600748    80Ap     6.682340
      40App    6.741678    81Ap     6.923871    41App    7.005029
      82Ap     7.006641    42App    7.045761    83Ap     7.068334
      84Ap     7.130744    43App    7.150372    44App    7.272659
      85Ap     7.325494    45App    7.325513    86Ap     7.363519
      46App    7.435785    87Ap     7.646473    88Ap     7.943042
      89Ap     7.962510    90Ap     8.810417    91Ap     9.594213
      92Ap    16.282248

    Final Occupation by Irrep:
             Ap   App
    DOCC [     7,    1 ]
    SOCC [     1,    1 ]

  @UHF Final Energy:  -150.87441241506178

   => Energetics <=

    Nuclear Repulsion Energy =             22.9100603077547369
    One-Electron Energy =                -253.6153398217819301
    Two-Electron Energy =                  79.8308670989653848
    Total Energy =                       -150.8744124150617836

  UHF NO Occupations:
  HONO-2 :    7 Ap 1.9970277
  HONO-1 :    8 Ap 1.0000000
  HONO-0 :    2App 1.0000000
  LUNO+0 :    9 Ap 0.0029723
  LUNO+1 :   10 Ap 0.0017167
  LUNO+2 :   11 Ap 0.0000024
  LUNO+3 :   12 Ap 0.0000018

Computation Completed

Properties will be evaluated at   0.000000,   0.000000,   0.000000 [a0]

Properties computed using the SCF density matrix

  Nuclear Dipole Moment: [e a0]
     X:    -2.2905      Y:     0.9681      Z:     0.0000

  Electronic Dipole Moment: [e a0]
     X:     2.7562      Y:    -0.2936      Z:     0.0000

  Dipole Moment: [e a0]
     X:     0.4657      Y:     0.6745      Z:     0.0000     Total:     0.8197

  Dipole Moment: [D]
     X:     1.1837      Y:     1.7145      Z:     0.0000     Total:     2.0834

*** tstop() called on d3-6.compute.lan at Wed Mar 10 10:57:48 2021
Module time:
	user time   =      62.83 seconds =       1.05 minutes
	system time =       2.96 seconds =       0.05 minutes
	total time  =          6 seconds =       0.10 minutes
Total time:
	user time   =      62.83 seconds =       1.05 minutes
	system time =       2.96 seconds =       0.05 minutes
	total time  =          6 seconds =       0.10 minutes
 MINTS: Wrapper to libmints.
   by Justin Turney

   Calculation information:
      Number of threads:                12
      Number of atoms:                   4
      Number of AO shells:              46
      Number of SO shells:              46
      Number of primitives:             82
      Number of atomic orbitals:       160
      Number of basis functions:       138

      Number of irreps:                  2
      Integral cutoff                 0.00e+00
      Number of functions per irrep: [  92   46 ]

 OEINTS: Overlap, kinetic, potential, dipole, and quadrupole integrals
         stored in file 35.

      Computing two-electron integrals...done
      Computed 22930766 non-zero two-electron integrals.
        Stored in file 33.

*** tstart() called on d3-6.compute.lan
*** at Wed Mar 10 10:57:53 2021

	Wfn Parameters:
	--------------------
	Wavefunction         = CCSD_T
	Number of irreps     = 2
	Number of MOs        = 138
	Number of active MOs = 136
	AO-Basis             = NONE
	Semicanonical        = false
	Reference            = UHF
	Print Level          = 1

	IRREP	# MOs	# FZDC	# DOCC	# SOCC	# VIRT	# FZVR
	-----	-----	------	------	------	------	------
	 Ap	   92	    2	    5	    1	    84	    0
	 App	   46	    0	    1	    1	    44	    0
	Transforming integrals...
	IWL integrals will be deleted.
	(OO|OO)...
	Presorting SO-basis two-electron integrals.
	Sorting File: SO Ints (nn|nn) nbuckets = 1
	Transforming the one-electron integrals and constructing Fock matrices
	Starting AA/AB first half-transformation.
	Sorting AA/AB half-transformed integrals.
	Starting BB first half-transformation.
	Sorting BB half-transformed integrals.
	First half integral transformation complete.
	Starting AA second half-transformation.
	Starting AB second half-transformation.
	Starting BB second half-transformation.
	Two-electron integral transformation complete.
	(OO|OV)...
	Starting AA second half-transformation.
	Starting AB second half-transformation.
	Starting BB second half-transformation.
	Two-electron integral transformation complete.
	(OO|VV)...
	Starting AA second half-transformation.
	Starting AB second half-transformation.
	Starting BB second half-transformation.
	Two-electron integral transformation complete.
	(OV|OO)...
	Starting AA/AB first half-transformation.
	Sorting AA/AB half-transformed integrals.
	Starting BB first half-transformation.
	Sorting BB half-transformed integrals.
	First half integral transformation complete.
	Starting AA second half-transformation.
	Starting AB second half-transformation.
	Starting BB second half-transformation.
	Two-electron integral transformation complete.
	(OV|OV)...
	Starting AA second half-transformation.
	Starting AB second half-transformation.
	Starting BB second half-transformation.
	Two-electron integral transformation complete.
	(OV|VV)...
	Starting AA second half-transformation.
	Starting AB second half-transformation.
	Starting BB second half-transformation.
	Two-electron integral transformation complete.
	(VV|OO)...
	Starting AA/AB first half-transformation.
	Sorting AA/AB half-transformed integrals.
	Starting BB first half-transformation.
	Sorting BB half-transformed integrals.
	First half integral transformation complete.
	Starting AA second half-transformation.
	Starting AB second half-transformation.
	Starting BB second half-transformation.
	Two-electron integral transformation complete.
	(VV|OV)...
	Starting AA second half-transformation.
	Starting AB second half-transformation.
	Starting BB second half-transformation.
	Two-electron integral transformation complete.
	(VV|VV)...
	Starting AA second half-transformation.
	Starting AB second half-transformation.
	Starting BB second half-transformation.
	Two-electron integral transformation complete.
	Frozen core energy     =   -125.85905752419482

	Size of irrep 0 of <AB|CD> integrals:     19.643 (MW) /    157.141 (MB)
	Size of irrep 1 of <AB|CD> integrals:     13.660 (MW) /    109.283 (MB)
	Total:                                    33.303 (MW) /    266.424 (MB)

	Size of irrep 0 of <ab|cd> integrals:     20.794 (MW) /    166.349 (MB)
	Size of irrep 1 of <ab|cd> integrals:     14.631 (MW) /    117.045 (MB)
	Total:                                    35.424 (MW) /    283.394 (MB)

	Size of irrep 0 of <Ab|Cd> integrals:     83.174 (MW) /    665.395 (MB)
	Size of irrep 1 of <Ab|Cd> integrals:     56.550 (MW) /    452.403 (MB)
	Total:                                   139.725 (MW) /   1117.798 (MB)

	Size of irrep 0 of <IA|BC> integrals:      5.323 (MW) /     42.586 (MB)
	Size of irrep 1 of <IA|BC> integrals:      3.193 (MW) /     25.547 (MB)
	Total:                                     8.517 (MW) /     68.133 (MB)

	Size of irrep 0 of <ia|bc> integrals:      4.348 (MW) /     34.780 (MB)
	Size of irrep 1 of <ia|bc> integrals:      2.372 (MW) /     18.972 (MB)
	Total:                                     6.719 (MW) /     53.752 (MB)

	Size of irrep 0 of <Ia|Bc> integrals:      5.472 (MW) /     43.776 (MB)
	Size of irrep 1 of <Ia|Bc> integrals:      3.309 (MW) /     26.470 (MB)
	Total:                                     8.781 (MW) /     70.246 (MB)

	Size of irrep 0 of <iA|bC> integrals:      4.232 (MW) /     33.853 (MB)
	Size of irrep 1 of <iA|bC> integrals:      2.286 (MW) /     18.289 (MB)
	Total:                                     6.518 (MW) /     52.142 (MB)

	Size of irrep 0 of tIjAb amplitudes:       0.292 (MW) /      2.335 (MB)
	Size of irrep 1 of tIjAb amplitudes:       0.120 (MW) /      0.963 (MB)
	Total:                                     0.412 (MW) /      3.297 (MB)

	Nuclear Rep. energy          =     22.91006030775474
	SCF energy                   =   -150.87441241506178
	One-electron energy          =    -84.40251905845736
	Two-electron (AA) energy     =     10.13711540925263
	Two-electron (BB) energy     =      5.39241351965986
	Two-electron (AB) energy     =     20.94757493092176
	Two-electron energy          =     36.47710385983426
	Reference energy             =   -150.87441241506320

*** tstop() called on d3-6.compute.lan at Wed Mar 10 10:58:39 2021
Module time:
	user time   =     287.23 seconds =       4.79 minutes
	system time =      22.63 seconds =       0.38 minutes
	total time  =         46 seconds =       0.77 minutes
Total time:
	user time   =     357.27 seconds =       5.95 minutes
	system time =      26.50 seconds =       0.44 minutes
	total time  =         57 seconds =       0.95 minutes
            **************************
            *                        *
            *        CCENERGY        *
            *                        *
            **************************

    Nuclear Rep. energy (wfn)     =   22.910060307754737
    SCF energy          (wfn)     = -150.874412415061784
    Reference energy    (file100) = -150.874412415063205

    Input parameters:
    -----------------
    Wave function   =     CCSD_T
    Reference wfn   =     UHF
    Brueckner       =     No
    Memory (Mbytes) =     4000.0
    Maxiter         =     50
    R_Convergence   =     1.0e-10
    E_Convergence   =     1.0e-10
    Restart         =     Yes
    DIIS            =     Yes
    AO Basis        =     NONE
    ABCD            =     NEW
    Cache Level     =     2
    Cache Type      =     LRU
    Print Level     =     1
    Num. of threads =     12
    # Amps to Print =     10
    Print MP2 Amps? =     No
    Analyze T2 Amps =     No
    Print Pair Ener =     No
    Local CC        =     No
    SCS-MP2         =     False
    SCSN-MP2        =     False
    SCS-CCSD        =     False

MP2 correlation energy -0.4166657774332428
                Solving CC Amplitude Equations
                ------------------------------
  Iter             Energy              RMS        T1Diag      D1Diag    New D1Diag    D2Diag
  ----     ---------------------    ---------   ----------  ----------  ----------   --------
     0        -0.416665777433243    0.000e+00    0.000000    0.000000    0.000000    0.000000
     1        -0.427369674720526    5.692e-02    0.010561    0.000000    0.000000    0.000000
     2        -0.435463365185492    1.691e-02    0.011039    0.000000    0.000000    0.000000
     3        -0.437587411101199    8.583e-03    0.012913    0.000000    0.000000    0.000000
     4        -0.437461518230658    2.537e-03    0.013281    0.000000    0.000000    0.000000
     5        -0.437447008064880    1.322e-03    0.013437    0.000000    0.000000    0.000000
     6        -0.437474259834871    5.155e-04    0.013460    0.000000    0.000000    0.000000
     7        -0.437478905329746    2.656e-04    0.013454    0.000000    0.000000    0.000000
     8        -0.437479505710161    9.978e-05    0.013450    0.000000    0.000000    0.000000
     9        -0.437480884042896    7.434e-05    0.013451    0.000000    0.000000    0.000000
    10        -0.437479315598166    6.407e-05    0.013452    0.000000    0.000000    0.000000
    11        -0.437479464313073    6.117e-05    0.013453    0.000000    0.000000    0.000000
    12        -0.437479177846746    5.946e-05    0.013455    0.000000    0.000000    0.000000
    13        -0.437479173361849    5.832e-05    0.013459    0.000000    0.000000    0.000000
    14        -0.437480343252175    5.646e-05    0.013476    0.000000    0.000000    0.000000
    15        -0.437480719355002    5.000e-05    0.013548    0.000000    0.000000    0.000000
    16        -0.437480493055429    3.346e-05    0.013686    0.000000    0.000000    0.000000
    17        -0.437480146246029    1.616e-05    0.013754    0.000000    0.000000    0.000000
    18        -0.437480014904240    7.585e-06    0.013771    0.000000    0.000000    0.000000
    19        -0.437480273663182    3.354e-06    0.013776    0.000000    0.000000    0.000000
    20        -0.437480385490055    1.503e-06    0.013777    0.000000    0.000000    0.000000
    21        -0.437480393528302    5.930e-07    0.013777    0.000000    0.000000    0.000000
    22        -0.437480394875388    2.823e-07    0.013777    0.000000    0.000000    0.000000
    23        -0.437480393762455    1.469e-07    0.013777    0.000000    0.000000    0.000000
    24        -0.437480393068247    6.102e-08    0.013777    0.000000    0.000000    0.000000
    25        -0.437480394035739    3.334e-08    0.013777    0.000000    0.000000    0.000000
    26        -0.437480394497581    2.591e-08    0.013777    0.000000    0.000000    0.000000
    27        -0.437480394656344    2.428e-08    0.013777    0.000000    0.000000    0.000000
    28        -0.437480394603616    2.353e-08    0.013777    0.000000    0.000000    0.000000
    29        -0.437480394438470    2.287e-08    0.013777    0.000000    0.000000    0.000000
    30        -0.437480394167978    2.180e-08    0.013777    0.000000    0.000000    0.000000
    31        -0.437480394362423    1.853e-08    0.013777    0.000000    0.000000    0.000000
    32        -0.437480394711482    9.787e-09    0.013777    0.000000    0.000000    0.000000
    33        -0.437480394816328    4.289e-09    0.013777    0.000000    0.000000    0.000000
    34        -0.437480394870271    1.750e-09    0.013777    0.000000    0.000000    0.000000
    35        -0.437480394877218    6.827e-10    0.013777    0.000000    0.000000    0.000000
    36        -0.437480394877071    2.924e-10    0.013777    0.000000    0.000000    0.000000

      * MP2 total energy                      = -151.291078192496457
      * CCSD total energy                     = -151.311892809939678
      * CCSD(T) total energy                     = -151.324255066309860
*** Psi4 exiting successfully. Buy a developer a beer!
