                               Psi4 1.3.2 release

  ==> Input File <==

--------------------------------------------------------------------------
memory 4 GB

molecule  {
0 3
O   -1.626052396214   -0.021981021372    0.000000000000
H   -0.663303466805   -0.021626739354    0.000000000000
H   -1.860702330713    0.911801262630    0.000000000000
O    1.785087707420   -0.034108066251    0.000000000000
}
set {
basis aug-cc-pvtz
reference uhf
e_convergence 10
scf_type pk
freeze_core true
}

set ccenergy {
e_convergence 10
r_convergence 10
}

e = energy('ccsd(t)')

print_out('Stephenergy {}'.format(e))

--------------------------------------------------------------------------

    Molecular point group: cs

    Geometry (in Angstrom), charge = 0, multiplicity = 3:

       Center              X                  Y                   Z               Mass
    ------------   -----------------  -----------------  -----------------  -----------------
         O           -1.626052396214    -0.021981021372     0.000000000000    15.994914619570
         H           -0.663303466805    -0.021626739354     0.000000000000     1.007825032230
         H           -1.860702330713     0.911801262630     0.000000000000     1.007825032230
         O            1.785087707420    -0.034108066251     0.000000000000    15.994914619570

  Charge       = 0
  Multiplicity = 3
  Basis Set: AUG-CC-PVTZ
    Blend: AUG-CC-PVTZ

    Orbital Energies [Eh]
    ---------------------

    Alpha Occupied:

       1Ap   -20.731236     2Ap   -20.561454     3Ap    -1.440077
       4Ap    -1.344763     5Ap    -0.730962     1App   -0.730870
       6Ap    -0.708986     7Ap    -0.633267     8Ap    -0.577899
       2App   -0.503859

    Alpha Virtual:

       9Ap     0.034196    10Ap     0.053397    11Ap     0.128547
       3App    0.132348    12Ap     0.147454    13Ap     0.160424
      14Ap     0.182817     4App    0.183477    15Ap     0.207476
      16Ap     0.236355    17Ap     0.268882     5App    0.281162
      18Ap     0.290156     6App    0.318939    19Ap     0.362741
      20Ap     0.387440    21Ap     0.457005    22Ap     0.555558
       7App    0.603032    23Ap     0.607968    24Ap     0.643748
      25Ap     0.666530     8App    0.689249    26Ap     0.711795
       9App    0.733572    10App    0.747415    27Ap     0.758536
      28Ap     0.789728    11App    0.824716    29Ap     0.838920
      30Ap     0.854209    12App    0.876602    31Ap     0.914568
      32Ap     0.929748    13App    0.938670    33Ap     0.949824
      14App    0.974266    34Ap     0.977768    35Ap     1.038419
      36Ap     1.089591    15App    1.164263    37Ap     1.171020
      38Ap     1.215033    16App    1.215892    39Ap     1.265653
      40Ap     1.280381    17App    1.521938    41Ap     1.538261
      18App    1.590715    42Ap     1.610319    43Ap     1.805591
      44Ap     1.814012    19App    1.978364    45Ap     1.978422
      46Ap     2.003288    20App    2.009736    47Ap     2.018232
      21App    2.035420    48Ap     2.041413    22App    2.093247
      49Ap     2.127248    50Ap     2.142659    23App    2.167309
      51Ap     2.245175    24App    2.286856    52Ap     2.327745
      53Ap     2.374412    25App    2.430257    54Ap     2.452909
      26App    2.463801    55Ap     2.487783    56Ap     2.552605
      57Ap     2.658280    27App    2.723769    58Ap     2.726451
      59Ap     2.856674    60Ap     2.913808    28App    2.935721
      61Ap     3.683853    62Ap     3.819913    29App    4.028610
      30App    4.054059    63Ap     4.069083    31App    4.145606
      64Ap     4.185317    65Ap     4.266532    32App    4.293842
      66Ap     4.363880    33App    4.389390    34App    4.429230
      67Ap     4.429776    68Ap     4.563571    69Ap     4.772289
      70Ap     4.935676    35App    5.151269    71Ap     5.176307
      72Ap     5.297612    73Ap     5.366893    36App    5.523660
      74Ap     5.680286    75Ap     6.190689    37App    6.313686
      76Ap     6.313709    38App    6.367046    77Ap     6.368330
      39App    6.471704    78Ap     6.488922    79Ap     6.533498
      80Ap     6.598575    40App    6.717253    81Ap     6.813899
      41App    6.818244    82Ap     6.913066    42App    6.925745
      83Ap     6.953667    84Ap     7.040159    43App    7.140209
      44App    7.269873    85Ap     7.315796    45App    7.321740
      86Ap     7.351791    46App    7.414210    87Ap     7.636183
      88Ap     7.928851    89Ap     7.951418    90Ap     8.805547
      91Ap     9.028940    92Ap    16.317773

    Beta Occupied:

       1Ap   -20.652485     2Ap   -20.561532     3Ap    -1.345077
       4Ap    -1.097534     5Ap    -0.708747     6Ap    -0.581005
       7Ap    -0.540716     1App   -0.503899

    Beta Virtual:

       8Ap     0.034097     9Ap     0.047299     2App    0.049775
      10Ap     0.058572    11Ap     0.143345    12Ap     0.151623
       3App    0.160134    13Ap     0.179655    14Ap     0.207805
      15Ap     0.217566     4App    0.226564    16Ap     0.245266
      17Ap     0.271234     5App    0.281367    18Ap     0.292779
       6App    0.320595    19Ap     0.366098    20Ap     0.394749
      21Ap     0.457494    22Ap     0.557759     7App    0.635846
      23Ap     0.638433    24Ap     0.646849    25Ap     0.669979
       8App    0.703178    26Ap     0.712439     9App    0.734406
      10App    0.748505    27Ap     0.772889    28Ap     0.801200
      29Ap     0.845680    11App    0.860966    30Ap     0.912271
      12App    0.926832    31Ap     0.930546    32Ap     0.946407
      13App    0.948468    33Ap     0.968501    34Ap     1.009033
      14App    1.023001    35Ap     1.040226    36Ap     1.099381
      15App    1.168361    37Ap     1.174130    16App    1.224326
      38Ap     1.257492    39Ap     1.269748    40Ap     1.289251
      17App    1.522720    41Ap     1.550169    18App    1.591754
      42Ap     1.638446    43Ap     1.808597    44Ap     1.816244
      45Ap     2.013603    19App    2.016519    46Ap     2.016639
      20App    2.039728    47Ap     2.047107    21App    2.129806
      48Ap     2.170502    49Ap     2.177421    22App    2.179236
      50Ap     2.181642    23App    2.216960    51Ap     2.283202
      24App    2.288334    52Ap     2.336206    53Ap     2.390335
      25App    2.433223    54Ap     2.454800    26App    2.471823
      55Ap     2.494831    56Ap     2.558427    57Ap     2.665494
      27App    2.724383    58Ap     2.728788    59Ap     2.860478
      60Ap     2.915804    28App    2.936382    61Ap     3.684154
      62Ap     3.821128    29App    4.029135    30App    4.128599
      63Ap     4.174870    64Ap     4.241037    31App    4.241168
      65Ap     4.275254    32App    4.293871    66Ap     4.380402
      33App    4.389647    34App    4.430760    67Ap     4.460647
      68Ap     4.564280    69Ap     4.773480    70Ap     4.936449
      35App    5.151255    71Ap     5.176700    72Ap     5.297817
      73Ap     5.367694    36App    5.523663    74Ap     5.680621
      75Ap     6.191508    37App    6.422642    76Ap     6.422658
      38App    6.443128    77Ap     6.444586    78Ap     6.521560
      39App    6.527502    79Ap     6.556651    80Ap     6.645639
      40App    6.719813    81Ap     6.913562    41App    7.005515
      82Ap     7.006170    42App    7.035065    83Ap     7.061395
      84Ap     7.122929    43App    7.142200    44App    7.269998
      85Ap     7.315994    45App    7.322359    86Ap     7.351982
      46App    7.414755    87Ap     7.638378    88Ap     7.929233
      89Ap     7.951704    90Ap     8.808351    91Ap     9.103742
      92Ap    16.318098

    Final Occupation by Irrep:
             Ap   App
    DOCC [     7,    1 ]
    SOCC [     1,    1 ]

  @UHF Final Energy:  -150.87461052582722

   => Energetics <=

    Nuclear Repulsion Energy =             21.9240823154216216
    One-Electron Energy =                -251.6430201704888532
    Two-Electron Energy =                  78.8443273292400022
    Total Energy =                       -150.8746105258272223

  UHF NO Occupations:
  HONO-2 :    7 Ap 1.9970391
  HONO-1 :    2App 1.0000000
  HONO-0 :    8 Ap 1.0000000
  LUNO+0 :    9 Ap 0.0029609
  LUNO+1 :   10 Ap 0.0017369
  LUNO+2 :   11 Ap 0.0000024
  LUNO+3 :   12 Ap 0.0000007

Computation Completed

Properties will be evaluated at   0.000000,   0.000000,   0.000000 [a0]

Properties computed using the SCF density matrix

  Nuclear Dipole Moment: [e a0]
     X:    -2.3654      Y:     0.8342      Z:     0.0000

  Electronic Dipole Moment: [e a0]
     X:     2.9188      Y:    -0.2231      Z:     0.0000

  Dipole Moment: [e a0]
     X:     0.5534      Y:     0.6111      Z:     0.0000     Total:     0.8244

  Dipole Moment: [D]
     X:     1.4065      Y:     1.5533      Z:     0.0000     Total:     2.0955

*** tstop() called on c4-12.compute.lan at Tue Mar  9 14:35:05 2021
Module time:
	user time   =      59.61 seconds =       0.99 minutes
	system time =       0.91 seconds =       0.02 minutes
	total time  =          6 seconds =       0.10 minutes
Total time:
	user time   =      59.61 seconds =       0.99 minutes
	system time =       0.91 seconds =       0.02 minutes
	total time  =          6 seconds =       0.10 minutes
 MINTS: Wrapper to libmints.
   by Justin Turney

   Calculation information:
      Number of threads:                12
      Number of atoms:                   4
      Number of AO shells:              46
      Number of SO shells:              46
      Number of primitives:             82
      Number of atomic orbitals:       160
      Number of basis functions:       138

      Number of irreps:                  2
      Integral cutoff                 0.00e+00
      Number of functions per irrep: [  92   46 ]

 OEINTS: Overlap, kinetic, potential, dipole, and quadrupole integrals
         stored in file 35.

      Computing two-electron integrals...done
      Computed 22929525 non-zero two-electron integrals.
        Stored in file 33.

*** tstart() called on c4-12.compute.lan
*** at Tue Mar  9 14:35:07 2021

	Wfn Parameters:
	--------------------
	Wavefunction         = CCSD_T
	Number of irreps     = 2
	Number of MOs        = 138
	Number of active MOs = 136
	AO-Basis             = NONE
	Semicanonical        = false
	Reference            = UHF
	Print Level          = 1

	IRREP	# MOs	# FZDC	# DOCC	# SOCC	# VIRT	# FZVR
	-----	-----	------	------	------	------	------
	 Ap	   92	    2	    5	    1	    84	    0
	 App	   46	    0	    1	    1	    44	    0
	Transforming integrals...
	IWL integrals will be deleted.
	(OO|OO)...
	Presorting SO-basis two-electron integrals.
	Sorting File: SO Ints (nn|nn) nbuckets = 1
	Transforming the one-electron integrals and constructing Fock matrices
	Starting AA/AB first half-transformation.
	Sorting AA/AB half-transformed integrals.
	Starting BB first half-transformation.
	Sorting BB half-transformed integrals.
	First half integral transformation complete.
	Starting AA second half-transformation.
	Starting AB second half-transformation.
	Starting BB second half-transformation.
	Two-electron integral transformation complete.
	(OO|OV)...
	Starting AA second half-transformation.
	Starting AB second half-transformation.
	Starting BB second half-transformation.
	Two-electron integral transformation complete.
	(OO|VV)...
	Starting AA second half-transformation.
	Starting AB second half-transformation.
	Starting BB second half-transformation.
	Two-electron integral transformation complete.
	(OV|OO)...
	Starting AA/AB first half-transformation.
	Sorting AA/AB half-transformed integrals.
	Starting BB first half-transformation.
	Sorting BB half-transformed integrals.
	First half integral transformation complete.
	Starting AA second half-transformation.
	Starting AB second half-transformation.
	Starting BB second half-transformation.
	Two-electron integral transformation complete.
	(OV|OV)...
	Starting AA second half-transformation.
	Starting AB second half-transformation.
	Starting BB second half-transformation.
	Two-electron integral transformation complete.
	(OV|VV)...
	Starting AA second half-transformation.
	Starting AB second half-transformation.
	Starting BB second half-transformation.
	Two-electron integral transformation complete.
	(VV|OO)...
	Starting AA/AB first half-transformation.
	Sorting AA/AB half-transformed integrals.
	Starting BB first half-transformation.
	Sorting BB half-transformed integrals.
	First half integral transformation complete.
	Starting AA second half-transformation.
	Starting AB second half-transformation.
	Starting BB second half-transformation.
	Two-electron integral transformation complete.
	(VV|OV)...
	Starting AA second half-transformation.
	Starting AB second half-transformation.
	Starting BB second half-transformation.
	Two-electron integral transformation complete.
	(VV|VV)...
	Starting AA second half-transformation.
	Starting AB second half-transformation.
	Starting BB second half-transformation.
	Two-electron integral transformation complete.
	Frozen core energy     =   -125.46642793800055

	Size of irrep 0 of <AB|CD> integrals:     19.643 (MW) /    157.141 (MB)
	Size of irrep 1 of <AB|CD> integrals:     13.660 (MW) /    109.283 (MB)
	Total:                                    33.303 (MW) /    266.424 (MB)

	Size of irrep 0 of <ab|cd> integrals:     20.794 (MW) /    166.349 (MB)
	Size of irrep 1 of <ab|cd> integrals:     14.631 (MW) /    117.045 (MB)
	Total:                                    35.424 (MW) /    283.394 (MB)

	Size of irrep 0 of <Ab|Cd> integrals:     83.174 (MW) /    665.395 (MB)
	Size of irrep 1 of <Ab|Cd> integrals:     56.550 (MW) /    452.403 (MB)
	Total:                                   139.725 (MW) /   1117.798 (MB)

	Size of irrep 0 of <IA|BC> integrals:      5.323 (MW) /     42.586 (MB)
	Size of irrep 1 of <IA|BC> integrals:      3.193 (MW) /     25.547 (MB)
	Total:                                     8.517 (MW) /     68.133 (MB)

	Size of irrep 0 of <ia|bc> integrals:      4.348 (MW) /     34.780 (MB)
	Size of irrep 1 of <ia|bc> integrals:      2.372 (MW) /     18.972 (MB)
	Total:                                     6.719 (MW) /     53.752 (MB)

	Size of irrep 0 of <Ia|Bc> integrals:      5.472 (MW) /     43.776 (MB)
	Size of irrep 1 of <Ia|Bc> integrals:      3.309 (MW) /     26.470 (MB)
	Total:                                     8.781 (MW) /     70.246 (MB)

	Size of irrep 0 of <iA|bC> integrals:      4.232 (MW) /     33.853 (MB)
	Size of irrep 1 of <iA|bC> integrals:      2.286 (MW) /     18.289 (MB)
	Total:                                     6.518 (MW) /     52.142 (MB)

	Size of irrep 0 of tIjAb amplitudes:       0.292 (MW) /      2.335 (MB)
	Size of irrep 1 of tIjAb amplitudes:       0.120 (MW) /      0.963 (MB)
	Total:                                     0.412 (MW) /      3.297 (MB)

	Nuclear Rep. energy          =     21.92408231542162
	SCF energy                   =   -150.87461052582722
	One-electron energy          =    -83.21687002125523
	Two-electron (AA) energy     =      9.94280406030384
	Two-electron (BB) energy     =      5.29147545178812
	Two-electron (AB) energy     =     20.65032560591319
	Two-electron energy          =     35.88460511800515
	Reference energy             =   -150.87461052582898

*** tstop() called on c4-12.compute.lan at Tue Mar  9 14:35:40 2021
Module time:
	user time   =     106.39 seconds =       1.77 minutes
	system time =      17.05 seconds =       0.28 minutes
	total time  =         33 seconds =       0.55 minutes
Total time:
	user time   =     172.24 seconds =       2.87 minutes
	system time =      18.55 seconds =       0.31 minutes
	total time  =         41 seconds =       0.68 minutes
            **************************
            *                        *
            *        CCENERGY        *
            *                        *
            **************************

    Nuclear Rep. energy (wfn)     =   21.924082315421622
    SCF energy          (wfn)     = -150.874610525827222
    Reference energy    (file100) = -150.874610525828984

    Input parameters:
    -----------------
    Wave function   =     CCSD_T
    Reference wfn   =     UHF
    Brueckner       =     No
    Memory (Mbytes) =     4000.0
    Maxiter         =     50
    R_Convergence   =     1.0e-10
    E_Convergence   =     1.0e-10
    Restart         =     Yes
    DIIS            =     Yes
    AO Basis        =     NONE
    ABCD            =     NEW
    Cache Level     =     2
    Cache Type      =     LRU
    Print Level     =     1
    Num. of threads =     12
    # Amps to Print =     10
    Print MP2 Amps? =     No
    Analyze T2 Amps =     No
    Print Pair Ener =     No
    Local CC        =     No
    SCS-MP2         =     False
    SCSN-MP2        =     False
    SCS-CCSD        =     False

MP2 correlation energy -0.4161753175814531
                Solving CC Amplitude Equations
                ------------------------------
  Iter             Energy              RMS        T1Diag      D1Diag    New D1Diag    D2Diag
  ----     ---------------------    ---------   ----------  ----------  ----------   --------
     0        -0.416175317581453    0.000e+00    0.000000    0.000000    0.000000    0.000000
     1        -0.426932931653464    5.670e-02    0.010466    0.000000    0.000000    0.000000
     2        -0.435025133830417    1.687e-02    0.010945    0.000000    0.000000    0.000000
     3        -0.437144817312764    8.489e-03    0.012786    0.000000    0.000000    0.000000
     4        -0.437019280984981    2.520e-03    0.013136    0.000000    0.000000    0.000000
     5        -0.437007573777878    1.275e-03    0.013281    0.000000    0.000000    0.000000
     6        -0.437033584813227    5.030e-04    0.013295    0.000000    0.000000    0.000000
     7        -0.437037698532599    2.286e-04    0.013285    0.000000    0.000000    0.000000
     8        -0.437038469211099    7.698e-05    0.013279    0.000000    0.000000    0.000000
     9        -0.437039706608194    4.693e-05    0.013279    0.000000    0.000000    0.000000
    10        -0.437038505373937    3.849e-05    0.013279    0.000000    0.000000    0.000000
    11        -0.437038603742490    3.701e-05    0.013279    0.000000    0.000000    0.000000
    12        -0.437038458714651    3.634e-05    0.013280    0.000000    0.000000    0.000000
    13        -0.437038375028391    3.583e-05    0.013281    0.000000    0.000000    0.000000
    14        -0.437038843065958    3.485e-05    0.013287    0.000000    0.000000    0.000000
    15        -0.437038908621825    3.235e-05    0.013302    0.000000    0.000000    0.000000
    16        -0.437038865183566    2.644e-05    0.013378    0.000000    0.000000    0.000000
    17        -0.437038809971634    1.520e-05    0.013431    0.000000    0.000000    0.000000
    18        -0.437038732704802    6.817e-06    0.013453    0.000000    0.000000    0.000000
    19        -0.437038905299250    2.991e-06    0.013459    0.000000    0.000000    0.000000
    20        -0.437038993479741    1.418e-06    0.013460    0.000000    0.000000    0.000000
    21        -0.437038998762387    5.815e-07    0.013460    0.000000    0.000000    0.000000
    22        -0.437038998975014    2.266e-07    0.013460    0.000000    0.000000    0.000000
    23        -0.437038999269431    9.859e-08    0.013460    0.000000    0.000000    0.000000
    24        -0.437038999085210    4.184e-08    0.013460    0.000000    0.000000    0.000000
    25        -0.437038999796927    2.169e-08    0.013460    0.000000    0.000000    0.000000
    26        -0.437039000173128    7.288e-09    0.013460    0.000000    0.000000    0.000000
    27        -0.437039000249508    2.350e-09    0.013460    0.000000    0.000000    0.000000
    28        -0.437039000277322    1.141e-09    0.013460    0.000000    0.000000    0.000000
    29        -0.437039000276675    6.819e-10    0.013460    0.000000    0.000000    0.000000
    30        -0.437039000266409    4.542e-10    0.013460    0.000000    0.000000    0.000000
    31        -0.437039000261107    3.627e-10    0.013460    0.000000    0.000000    0.000000
    32        -0.437039000259420    3.381e-10    0.013460    0.000000    0.000000    0.000000
    33        -0.437039000258439    3.282e-10    0.013460    0.000000    0.000000    0.000000
    34        -0.437039000257626    3.099e-10    0.013460    0.000000    0.000000    0.000000
    35        -0.437039000256797    2.644e-10    0.013460    0.000000    0.000000    0.000000
    36        -0.437039000257548    1.820e-10    0.013460    0.000000    0.000000    0.000000

      * MP2 total energy                      = -151.290785843410447
      * CCSD total energy                     = -151.311649526085375
      * CCSD(T) total energy                     = -151.323933197415727
*** Psi4 exiting successfully. Buy a developer a beer!
