                               Psi4 1.3.2 release

  ==> Input File <==

--------------------------------------------------------------------------
memory 4 GB

molecule  {
0 3
O   -1.638982113598   -0.022498729259    0.000000000000
H   -0.676917183923   -0.025901527947    0.000000000000
H   -1.865327988249    0.910089227565    0.000000000000
O    1.799166671223   -0.033213134046    0.000000000000
}
set {
basis aug-cc-pvtz
reference uhf
e_convergence 10
scf_type pk
freeze_core true
}

set ccenergy {
e_convergence 10
r_convergence 10
}

e = energy('ccsd(t)')

print_out('Stephenergy {}'.format(e))

--------------------------------------------------------------------------

    Molecular point group: cs

    Geometry (in Angstrom), charge = 0, multiplicity = 3:

       Center              X                  Y                   Z               Mass
    ------------   -----------------  -----------------  -----------------  -----------------
         O           -1.638982113598    -0.022498729259     0.000000000000    15.994914619570
         H           -0.676917183923    -0.025901527947     0.000000000000     1.007825032230
         H           -1.865327988249     0.910089227565     0.000000000000     1.007825032230
         O            1.799166671223    -0.033213134046     0.000000000000    15.994914619570

  Charge       = 0
  Multiplicity = 3
  Basis Set: AUG-CC-PVTZ
    Blend: AUG-CC-PVTZ

    Orbital Energies [Eh]
    ---------------------

    Alpha Occupied:

       1Ap   -20.730880     2Ap   -20.561477     3Ap    -1.439688
       4Ap    -1.346131     5Ap    -0.730604     1App   -0.730515
       6Ap    -0.709614     7Ap    -0.632922     8Ap    -0.578989
       2App   -0.504301

    Alpha Virtual:

       9Ap     0.034181    10Ap     0.053397    11Ap     0.128628
       3App    0.132404    12Ap     0.147368    13Ap     0.160400
      14Ap     0.182800     4App    0.183081    15Ap     0.206911
      16Ap     0.235707    17Ap     0.268909     5App    0.281017
      18Ap     0.289572     6App    0.318368    19Ap     0.361866
      20Ap     0.386877    21Ap     0.457434    22Ap     0.554592
       7App    0.603397    23Ap     0.607946    24Ap     0.643394
      25Ap     0.666486     8App    0.686502    26Ap     0.711564
       9App    0.733424    10App    0.747333    27Ap     0.757124
      28Ap     0.788934    11App    0.825032    29Ap     0.837917
      30Ap     0.853843    12App    0.876192    31Ap     0.913605
      32Ap     0.928468    13App    0.937704    33Ap     0.949438
      14App    0.973639    34Ap     0.976355    35Ap     1.039032
      36Ap     1.084550    15App    1.163281    37Ap     1.170894
      16App    1.211287    38Ap     1.219392    39Ap     1.265306
      40Ap     1.276058    17App    1.521931    41Ap     1.532075
      18App    1.590204    42Ap     1.600367    43Ap     1.806761
      44Ap     1.815083    19App    1.978615    45Ap     1.978673
      46Ap     2.005151    20App    2.009448    47Ap     2.019571
      21App    2.034516    48Ap     2.040398    22App    2.089468
      49Ap     2.122374    50Ap     2.138497    23App    2.162552
      51Ap     2.238734    24App    2.286716    52Ap     2.325685
      53Ap     2.368609    25App    2.427573    54Ap     2.453610
      26App    2.459101    55Ap     2.484152    56Ap     2.547144
      57Ap     2.654811    27App    2.722577    58Ap     2.723190
      59Ap     2.857287    60Ap     2.908127    28App    2.934977
      61Ap     3.686441    62Ap     3.813246    29App    4.030600
      30App    4.054021    63Ap     4.068464    31App    4.144015
      64Ap     4.182069    65Ap     4.270509    32App    4.291663
      66Ap     4.360353    33App    4.390064    67Ap     4.426229
      34App    4.430029    68Ap     4.565395    69Ap     4.774995
      70Ap     4.941340    35App    5.155526    71Ap     5.183019
      72Ap     5.297864    73Ap     5.372673    36App    5.530395
      74Ap     5.679833    75Ap     6.194783    37App    6.314007
      76Ap     6.314029    38App    6.366642    77Ap     6.367780
      39App    6.466410    78Ap     6.483939    79Ap     6.530563
      80Ap     6.595693    40App    6.717264    81Ap     6.814175
      41App    6.818168    82Ap     6.919384    42App    6.924684
      83Ap     6.952729    84Ap     7.039127    43App    7.141421
      44App    7.271548    85Ap     7.316760    45App    7.326365
      86Ap     7.352606    46App    7.410877    87Ap     7.638738
      88Ap     7.926710    89Ap     7.958760    90Ap     8.815333
      91Ap     8.990233    92Ap    16.350304

    Beta Occupied:

       1Ap   -20.652135     2Ap   -20.561550     3Ap    -1.346420
       4Ap    -1.097141     5Ap    -0.709428     6Ap    -0.581825
       7Ap    -0.540545     1App   -0.504339

    Beta Virtual:

       8Ap     0.034097     9Ap     0.047336     2App    0.049960
      10Ap     0.058745    11Ap     0.143173    12Ap     0.151703
       3App    0.160041    13Ap     0.179772    14Ap     0.207425
      15Ap     0.217463     4App    0.226521    16Ap     0.244548
      17Ap     0.271294     5App    0.281213    18Ap     0.292238
       6App    0.319849    19Ap     0.365214    20Ap     0.393824
      21Ap     0.457905    22Ap     0.556715     7App    0.636279
      23Ap     0.638262    24Ap     0.646703    25Ap     0.670048
       8App    0.700481    26Ap     0.712204     9App    0.734210
      10App    0.748386    27Ap     0.770936    28Ap     0.800447
      29Ap     0.845191    11App    0.860665    30Ap     0.911747
      12App    0.925708    31Ap     0.929168    32Ap     0.946023
      13App    0.948368    33Ap     0.967577    34Ap     1.008502
      14App    1.023003    35Ap     1.040578    36Ap     1.093538
      15App    1.167709    37Ap     1.173942    16App    1.219053
      38Ap     1.260394    39Ap     1.271026    40Ap     1.284670
      17App    1.522723    41Ap     1.546264    18App    1.591176
      42Ap     1.626967    43Ap     1.809412    44Ap     1.817412
      45Ap     2.016610    19App    2.016775    46Ap     2.017706
      20App    2.038661    47Ap     2.046052    21App    2.124541
      48Ap     2.162787    49Ap     2.173362    22App    2.179267
      50Ap     2.180480    23App    2.213780    51Ap     2.278975
      24App    2.288159    52Ap     2.335349    53Ap     2.385152
      25App    2.431030    54Ap     2.455804    26App    2.466546
      55Ap     2.490906    56Ap     2.552906    57Ap     2.661473
      27App    2.723153    58Ap     2.725334    59Ap     2.860862
      60Ap     2.909982    28App    2.935621    61Ap     3.686726
      62Ap     3.814321    29App    4.031190    30App    4.128395
      63Ap     4.172820    31App    4.239692    64Ap     4.241343
      65Ap     4.277297    32App    4.291700    66Ap     4.377453
      33App    4.390349    34App    4.431519    67Ap     4.456528
      68Ap     4.566143    69Ap     4.776022    70Ap     4.942062
      35App    5.155514    71Ap     5.183433    72Ap     5.298067
      73Ap     5.373466    36App    5.530396    74Ap     5.680155
      75Ap     6.195657    37App    6.422962    76Ap     6.422977
      38App    6.442790    77Ap     6.444083    78Ap     6.519225
      39App    6.522276    79Ap     6.551076    80Ap     6.642688
      40App    6.719652    81Ap     6.920475    41App    7.005556
      82Ap     7.006305    42App    7.034275    83Ap     7.060056
      84Ap     7.122195    43App    7.143248    44App    7.271681
      85Ap     7.316981    45App    7.326905    86Ap     7.352754
      46App    7.411438    87Ap     7.640985    88Ap     7.927103
      89Ap     7.959070    90Ap     8.819199    91Ap     9.064158
      92Ap    16.350598

    Final Occupation by Irrep:
             Ap   App
    DOCC [     7,    1 ]
    SOCC [     1,    1 ]

  @UHF Final Energy:  -150.87474206232176

   => Energetics <=

    Nuclear Repulsion Energy =             21.8403958125013631
    One-Electron Energy =                -251.4717719616288605
    Two-Electron Energy =                  78.7566340868057466
    Total Energy =                       -150.8747420623217579

  UHF NO Occupations:
  HONO-2 :    7 Ap 1.9970404
  HONO-1 :    8 Ap 1.0000000
  HONO-0 :    2App 1.0000000
  LUNO+0 :    9 Ap 0.0029596
  LUNO+1 :   10 Ap 0.0017386
  LUNO+2 :   11 Ap 0.0000024
  LUNO+3 :   12 Ap 0.0000006

Computation Completed

Properties will be evaluated at   0.000000,   0.000000,   0.000000 [a0]

Properties computed using the SCF density matrix

  Nuclear Dipole Moment: [e a0]
     X:    -2.3825      Y:     0.8286      Z:     0.0000

  Electronic Dipole Moment: [e a0]
     X:     2.9383      Y:    -0.2199      Z:     0.0000

  Dipole Moment: [e a0]
     X:     0.5558      Y:     0.6087      Z:     0.0000     Total:     0.8243

  Dipole Moment: [D]
     X:     1.4128      Y:     1.5471      Z:     0.0000     Total:     2.0951

*** tstop() called on c4-16.compute.lan at Tue Mar  9 14:29:34 2021
Module time:
	user time   =      62.99 seconds =       1.05 minutes
	system time =       0.96 seconds =       0.02 minutes
	total time  =          6 seconds =       0.10 minutes
Total time:
	user time   =      62.99 seconds =       1.05 minutes
	system time =       0.96 seconds =       0.02 minutes
	total time  =          6 seconds =       0.10 minutes
 MINTS: Wrapper to libmints.
   by Justin Turney

   Calculation information:
      Number of threads:                12
      Number of atoms:                   4
      Number of AO shells:              46
      Number of SO shells:              46
      Number of primitives:             82
      Number of atomic orbitals:       160
      Number of basis functions:       138

      Number of irreps:                  2
      Integral cutoff                 0.00e+00
      Number of functions per irrep: [  92   46 ]

 OEINTS: Overlap, kinetic, potential, dipole, and quadrupole integrals
         stored in file 35.

      Computing two-electron integrals...done
      Computed 22927068 non-zero two-electron integrals.
        Stored in file 33.

*** tstart() called on c4-16.compute.lan
*** at Tue Mar  9 14:29:38 2021

	Wfn Parameters:
	--------------------
	Wavefunction         = CCSD_T
	Number of irreps     = 2
	Number of MOs        = 138
	Number of active MOs = 136
	AO-Basis             = NONE
	Semicanonical        = false
	Reference            = UHF
	Print Level          = 1

	IRREP	# MOs	# FZDC	# DOCC	# SOCC	# VIRT	# FZVR
	-----	-----	------	------	------	------	------
	 Ap	   92	    2	    5	    1	    84	    0
	 App	   46	    0	    1	    1	    44	    0
	Transforming integrals...
	IWL integrals will be deleted.
	(OO|OO)...
	Presorting SO-basis two-electron integrals.
	Sorting File: SO Ints (nn|nn) nbuckets = 1
	Transforming the one-electron integrals and constructing Fock matrices
	Starting AA/AB first half-transformation.
	Sorting AA/AB half-transformed integrals.
	Starting BB first half-transformation.
	Sorting BB half-transformed integrals.
	First half integral transformation complete.
	Starting AA second half-transformation.
	Starting AB second half-transformation.
	Starting BB second half-transformation.
	Two-electron integral transformation complete.
	(OO|OV)...
	Starting AA second half-transformation.
	Starting AB second half-transformation.
	Starting BB second half-transformation.
	Two-electron integral transformation complete.
	(OO|VV)...
	Starting AA second half-transformation.
	Starting AB second half-transformation.
	Starting BB second half-transformation.
	Two-electron integral transformation complete.
	(OV|OO)...
	Starting AA/AB first half-transformation.
	Sorting AA/AB half-transformed integrals.
	Starting BB first half-transformation.
	Sorting BB half-transformed integrals.
	First half integral transformation complete.
	Starting AA second half-transformation.
	Starting AB second half-transformation.
	Starting BB second half-transformation.
	Two-electron integral transformation complete.
	(OV|OV)...
	Starting AA second half-transformation.
	Starting AB second half-transformation.
	Starting BB second half-transformation.
	Two-electron integral transformation complete.
	(OV|VV)...
	Starting AA second half-transformation.
	Starting AB second half-transformation.
	Starting BB second half-transformation.
	Two-electron integral transformation complete.
	(VV|OO)...
	Starting AA/AB first half-transformation.
	Sorting AA/AB half-transformed integrals.
	Starting BB first half-transformation.
	Sorting BB half-transformed integrals.
	First half integral transformation complete.
	Starting AA second half-transformation.
	Starting AB second half-transformation.
	Starting BB second half-transformation.
	Two-electron integral transformation complete.
	(VV|OV)...
	Starting AA second half-transformation.
	Starting AB second half-transformation.
	Starting BB second half-transformation.
	Two-electron integral transformation complete.
	(VV|VV)...
	Starting AA second half-transformation.
	Starting AB second half-transformation.
	Starting BB second half-transformation.
	Two-electron integral transformation complete.
	Frozen core energy     =   -125.43056605591069

	Size of irrep 0 of <AB|CD> integrals:     19.643 (MW) /    157.141 (MB)
	Size of irrep 1 of <AB|CD> integrals:     13.660 (MW) /    109.283 (MB)
	Total:                                    33.303 (MW) /    266.424 (MB)

	Size of irrep 0 of <ab|cd> integrals:     20.794 (MW) /    166.349 (MB)
	Size of irrep 1 of <ab|cd> integrals:     14.631 (MW) /    117.045 (MB)
	Total:                                    35.424 (MW) /    283.394 (MB)

	Size of irrep 0 of <Ab|Cd> integrals:     83.174 (MW) /    665.395 (MB)
	Size of irrep 1 of <Ab|Cd> integrals:     56.550 (MW) /    452.403 (MB)
	Total:                                   139.725 (MW) /   1117.798 (MB)

	Size of irrep 0 of <IA|BC> integrals:      5.323 (MW) /     42.586 (MB)
	Size of irrep 1 of <IA|BC> integrals:      3.193 (MW) /     25.547 (MB)
	Total:                                     8.517 (MW) /     68.133 (MB)

	Size of irrep 0 of <ia|bc> integrals:      4.348 (MW) /     34.780 (MB)
	Size of irrep 1 of <ia|bc> integrals:      2.372 (MW) /     18.972 (MB)
	Total:                                     6.719 (MW) /     53.752 (MB)

	Size of irrep 0 of <Ia|Bc> integrals:      5.472 (MW) /     43.776 (MB)
	Size of irrep 1 of <Ia|Bc> integrals:      3.309 (MW) /     26.470 (MB)
	Total:                                     8.781 (MW) /     70.246 (MB)

	Size of irrep 0 of <iA|bC> integrals:      4.232 (MW) /     33.853 (MB)
	Size of irrep 1 of <iA|bC> integrals:      2.286 (MW) /     18.289 (MB)
	Total:                                     6.518 (MW) /     52.142 (MB)

	Size of irrep 0 of tIjAb amplitudes:       0.292 (MW) /      2.335 (MB)
	Size of irrep 1 of tIjAb amplitudes:       0.120 (MW) /      0.963 (MB)
	Total:                                     0.412 (MW) /      3.297 (MB)

	Nuclear Rep. energy          =     21.84039581250136
	SCF energy                   =   -150.87474206232176
	One-electron energy          =    -83.11668063600676
	Two-electron (AA) energy     =      9.92441102080751
	Two-electron (BB) energy     =      5.28267798369043
	Two-electron (AB) energy     =     20.62501981259475
	Two-electron energy          =     35.83210881709269
	Reference energy             =   -150.87474206232338

*** tstop() called on c4-16.compute.lan at Tue Mar  9 14:30:15 2021
Module time:
	user time   =     127.62 seconds =       2.13 minutes
	system time =      19.31 seconds =       0.32 minutes
	total time  =         37 seconds =       0.62 minutes
Total time:
	user time   =     197.38 seconds =       3.29 minutes
	system time =      20.97 seconds =       0.35 minutes
	total time  =         47 seconds =       0.78 minutes
            **************************
            *                        *
            *        CCENERGY        *
            *                        *
            **************************

    Nuclear Rep. energy (wfn)     =   21.840395812501363
    SCF energy          (wfn)     = -150.874742062321758
    Reference energy    (file100) = -150.874742062323378

    Input parameters:
    -----------------
    Wave function   =     CCSD_T
    Reference wfn   =     UHF
    Brueckner       =     No
    Memory (Mbytes) =     4000.0
    Maxiter         =     50
    R_Convergence   =     1.0e-10
    E_Convergence   =     1.0e-10
    Restart         =     Yes
    DIIS            =     Yes
    AO Basis        =     NONE
    ABCD            =     NEW
    Cache Level     =     2
    Cache Type      =     LRU
    Print Level     =     1
    Num. of threads =     12
    # Amps to Print =     10
    Print MP2 Amps? =     No
    Analyze T2 Amps =     No
    Print Pair Ener =     No
    Local CC        =     No
    SCS-MP2         =     False
    SCSN-MP2        =     False
    SCS-CCSD        =     False

MP2 correlation energy -0.4159909591792523
                Solving CC Amplitude Equations
                ------------------------------
  Iter             Energy              RMS        T1Diag      D1Diag    New D1Diag    D2Diag
  ----     ---------------------    ---------   ----------  ----------  ----------   --------
     0        -0.415990959179252    0.000e+00    0.000000    0.000000    0.000000    0.000000
     1        -0.426792669365026    5.656e-02    0.010435    0.000000    0.000000    0.000000
     2        -0.434866520980675    1.683e-02    0.010917    0.000000    0.000000    0.000000
     3        -0.436978226834640    8.458e-03    0.012749    0.000000    0.000000    0.000000
     4        -0.436852769725504    2.516e-03    0.013098    0.000000    0.000000    0.000000
     5        -0.436841435318754    1.270e-03    0.013241    0.000000    0.000000    0.000000
     6        -0.436867406996278    5.017e-04    0.013254    0.000000    0.000000    0.000000
     7        -0.436871426999280    2.248e-04    0.013244    0.000000    0.000000    0.000000
     8        -0.436872210312243    7.568e-05    0.013238    0.000000    0.000000    0.000000
     9        -0.436873424744667    4.490e-05    0.013237    0.000000    0.000000    0.000000
    10        -0.436872250186756    3.655e-05    0.013237    0.000000    0.000000    0.000000
    11        -0.436872350594410    3.513e-05    0.013237    0.000000    0.000000    0.000000
    12        -0.436872214863402    3.452e-05    0.013238    0.000000    0.000000    0.000000
    13        -0.436872126576913    3.407e-05    0.013239    0.000000    0.000000    0.000000
    14        -0.436872554463936    3.314e-05    0.013245    0.000000    0.000000    0.000000
    15        -0.436872598024952    3.073e-05    0.013259    0.000000    0.000000    0.000000
    16        -0.436872570462017    2.529e-05    0.013331    0.000000    0.000000    0.000000
    17        -0.436872547760205    1.467e-05    0.013381    0.000000    0.000000    0.000000
    18        -0.436872472857761    6.445e-06    0.013402    0.000000    0.000000    0.000000
    19        -0.436872623792842    2.862e-06    0.013407    0.000000    0.000000    0.000000
    20        -0.436872705363791    1.349e-06    0.013408    0.000000    0.000000    0.000000
    21        -0.436872711042297    5.666e-07    0.013408    0.000000    0.000000    0.000000
    22        -0.436872711333594    2.250e-07    0.013409    0.000000    0.000000    0.000000
    23        -0.436872711896355    9.602e-08    0.013409    0.000000    0.000000    0.000000
    24        -0.436872711770004    4.070e-08    0.013409    0.000000    0.000000    0.000000
    25        -0.436872712417351    2.141e-08    0.013409    0.000000    0.000000    0.000000
    26        -0.436872712795852    7.497e-09    0.013409    0.000000    0.000000    0.000000
    27        -0.436872712869584    2.724e-09    0.013409    0.000000    0.000000    0.000000
    28        -0.436872712894475    1.683e-09    0.013409    0.000000    0.000000    0.000000
    29        -0.436872712894885    1.404e-09    0.013409    0.000000    0.000000    0.000000
    30        -0.436872712884510    1.264e-09    0.013409    0.000000    0.000000    0.000000
    31        -0.436872712875127    1.183e-09    0.013409    0.000000    0.000000    0.000000
    32        -0.436872712868670    1.125e-09    0.013409    0.000000    0.000000    0.000000
    33        -0.436872712865787    1.020e-09    0.013409    0.000000    0.000000    0.000000
    34        -0.436872712867601    7.358e-10    0.013409    0.000000    0.000000    0.000000
    35        -0.436872712869485    3.670e-10    0.013409    0.000000    0.000000    0.000000
    36        -0.436872712870080    1.439e-10    0.013409    0.000000    0.000000    0.000000

      * MP2 total energy                      = -151.290733021502632
      * CCSD total energy                     = -151.311614775191970
      * CCSD(T) total energy                     = -151.323872389340409
*** Psi4 exiting successfully. Buy a developer a beer!
