                               Psi4 1.3.2 release

  ==> Input File <==

--------------------------------------------------------------------------
memory 4 GB

molecule  {
0 3
O   -1.626052396214   -0.021773618994    0.000000000000
H   -0.665840428694   -0.023004073496    0.000000000000
H   -1.861054678159    0.909745688295    0.000000000000
O    1.785269760175   -0.034099164185    0.000000000000
}
set {
basis aug-cc-pvtz
reference uhf
e_convergence 10
scf_type pk
freeze_core true
}

set ccenergy {
e_convergence 10
r_convergence 10
}

e = energy('ccsd(t)')

print_out('Stephenergy {}'.format(e))

--------------------------------------------------------------------------

    Molecular point group: cs

    Geometry (in Angstrom), charge = 0, multiplicity = 3:

       Center              X                  Y                   Z               Mass
    ------------   -----------------  -----------------  -----------------  -----------------
         O           -1.626052396214    -0.021773618994     0.000000000000    15.994914619570
         H           -0.665840428694    -0.023004073496     0.000000000000     1.007825032230
         H           -1.861054678159     0.909745688295     0.000000000000     1.007825032230
         O            1.785269760175    -0.034099164185     0.000000000000    15.994914619570

  Charge       = 0
  Multiplicity = 3
  Basis Set: AUG-CC-PVTZ
    Blend: AUG-CC-PVTZ

    Orbital Energies [Eh]
    ---------------------

    Alpha Occupied:

       1Ap   -20.731154     2Ap   -20.561017     3Ap    -1.439995
       4Ap    -1.345875     5Ap    -0.730886     1App   -0.730792
       6Ap    -0.710517     7Ap    -0.633211     8Ap    -0.578093
       2App   -0.504038

    Alpha Virtual:

       9Ap     0.034220    10Ap     0.053392    11Ap     0.128550
       3App    0.132322    12Ap     0.147504    13Ap     0.160464
      14Ap     0.182788     4App    0.183380    15Ap     0.207399
      16Ap     0.236547    17Ap     0.268963     5App    0.281152
      18Ap     0.290307     6App    0.319093    19Ap     0.363111
      20Ap     0.387438    21Ap     0.457435    22Ap     0.555359
       7App    0.603094    23Ap     0.607985    24Ap     0.644077
      25Ap     0.666614     8App    0.689158    26Ap     0.711995
       9App    0.733491    10App    0.747072    27Ap     0.758406
      28Ap     0.789818    11App    0.824830    29Ap     0.839305
      30Ap     0.854262    12App    0.876678    31Ap     0.914375
      32Ap     0.930027    13App    0.938601    33Ap     0.949930
      14App    0.974308    34Ap     0.978288    35Ap     1.039225
      36Ap     1.089737    15App    1.164582    37Ap     1.171835
      38Ap     1.215482    16App    1.215993    39Ap     1.265231
      40Ap     1.280068    17App    1.522701    41Ap     1.538376
      18App    1.592300    42Ap     1.610096    43Ap     1.805725
      44Ap     1.813564    19App    1.978423    45Ap     1.978481
      46Ap     2.004490    20App    2.009759    47Ap     2.019341
      21App    2.035384    48Ap     2.041980    22App    2.092885
      49Ap     2.126763    50Ap     2.142512    23App    2.167009
      51Ap     2.245032    24App    2.287034    52Ap     2.327565
      53Ap     2.373473    25App    2.430301    54Ap     2.452901
      26App    2.464139    55Ap     2.487565    56Ap     2.552913
      57Ap     2.659785    27App    2.723264    58Ap     2.725444
      59Ap     2.859662    60Ap     2.915106    28App    2.936475
      61Ap     3.686747    62Ap     3.822891    29App    4.029833
      30App    4.054354    63Ap     4.069186    31App    4.147854
      64Ap     4.188507    65Ap     4.269185    32App    4.296765
      66Ap     4.363976    33App    4.390657    67Ap     4.430276
      34App    4.431035    68Ap     4.564345    69Ap     4.774444
      70Ap     4.941288    35App    5.157923    71Ap     5.179709
      72Ap     5.302466    73Ap     5.376735    36App    5.530229
      74Ap     5.686268    75Ap     6.192875    37App    6.313758
      76Ap     6.313780    38App    6.367063    77Ap     6.368358
      39App    6.471228    78Ap     6.488670    79Ap     6.533322
      80Ap     6.598635    40App    6.717943    81Ap     6.814012
      41App    6.818318    82Ap     6.915677    42App    6.925799
      83Ap     6.953905    84Ap     7.040173    43App    7.142921
      44App    7.271668    85Ap     7.322380    45App    7.326882
      86Ap     7.352594    46App    7.414694    87Ap     7.643629
      88Ap     7.934299    89Ap     7.957666    90Ap     8.816033
      91Ap     9.027715    92Ap    16.395800

    Beta Occupied:

       1Ap   -20.652406     2Ap   -20.561094     3Ap    -1.346185
       4Ap    -1.097454     5Ap    -0.710303     6Ap    -0.581148
       7Ap    -0.540684     1App   -0.504076

    Beta Virtual:

       8Ap     0.034119     9Ap     0.047318     2App    0.049828
      10Ap     0.058607    11Ap     0.143348    12Ap     0.151645
       3App    0.160010    13Ap     0.179664    14Ap     0.207756
      15Ap     0.217601     4App    0.226586    16Ap     0.245466
      17Ap     0.271314     5App    0.281358    18Ap     0.292922
       6App    0.320737    19Ap     0.366470    20Ap     0.394717
      21Ap     0.457928    22Ap     0.557538     7App    0.635913
      23Ap     0.638468    24Ap     0.647150    25Ap     0.670071
       8App    0.703108    26Ap     0.712645     9App    0.734335
      10App    0.748138    27Ap     0.772722    28Ap     0.801292
      29Ap     0.846141    11App    0.860998    30Ap     0.912212
      12App    0.926799    31Ap     0.930705    32Ap     0.946435
      13App    0.948644    33Ap     0.968906    34Ap     1.009428
      14App    1.023009    35Ap     1.040971    36Ap     1.099443
      15App    1.168692    37Ap     1.174899    16App    1.224379
      38Ap     1.257681    39Ap     1.269331    40Ap     1.289177
      17App    1.523481    41Ap     1.550596    18App    1.593333
      42Ap     1.637939    43Ap     1.808629    44Ap     1.815900
      45Ap     2.015758    19App    2.016579    46Ap     2.016884
      20App    2.039683    47Ap     2.047671    21App    2.129247
      48Ap     2.169876    49Ap     2.177334    22App    2.179272
      50Ap     2.181515    23App    2.216903    51Ap     2.283255
      24App    2.288517    52Ap     2.335768    53Ap     2.389761
      25App    2.433277    54Ap     2.454711    26App    2.472096
      55Ap     2.494659    56Ap     2.558709    57Ap     2.666734
      27App    2.723885    58Ap     2.727942    59Ap     2.863512
      60Ap     2.917070    28App    2.937128    61Ap     3.687047
      62Ap     3.824074    29App    4.030382    30App    4.131014
      63Ap     4.177775    31App    4.241285    64Ap     4.242274
      65Ap     4.277081    32App    4.296796    66Ap     4.380898
      33App    4.390920    34App    4.432542    67Ap     4.460744
      68Ap     4.565050    69Ap     4.775628    70Ap     4.942048
      35App    5.157910    71Ap     5.180110    72Ap     5.302664
      73Ap     5.377548    36App    5.530233    74Ap     5.686609
      75Ap     6.193698    37App    6.422713    76Ap     6.422729
      38App    6.443150    77Ap     6.444619    78Ap     6.521585
      39App    6.527032    79Ap     6.556209    80Ap     6.645682
      40App    6.720512    81Ap     6.916402    41App    7.005578
      82Ap     7.006298    42App    7.035255    83Ap     7.061397
      84Ap     7.122961    43App    7.144778    44App    7.271806
      85Ap     7.322532    45App    7.327500    86Ap     7.352818
      46App    7.415223    87Ap     7.645866    88Ap     7.934680
      89Ap     7.957978    90Ap     8.819100    91Ap     9.102207
      92Ap    16.396121

    Final Occupation by Irrep:
             Ap   App
    DOCC [     7,    1 ]
    SOCC [     1,    1 ]

  @UHF Final Energy:  -150.87480752126524

   => Energetics <=

    Nuclear Repulsion Energy =             21.9433936340245097
    One-Electron Energy =                -251.6774748432331421
    Two-Electron Energy =                  78.8592736879434000
    Total Energy =                       -150.8748075212652111

  UHF NO Occupations:
  HONO-2 :    7 Ap 1.9970394
  HONO-1 :    8 Ap 1.0000000
  HONO-0 :    2App 1.0000000
  LUNO+0 :    9 Ap 0.0029606
  LUNO+1 :   10 Ap 0.0017363
  LUNO+2 :   11 Ap 0.0000024
  LUNO+3 :   12 Ap 0.0000007

Computation Completed

Properties will be evaluated at   0.000000,   0.000000,   0.000000 [a0]

Properties computed using the SCF density matrix

  Nuclear Dipole Moment: [e a0]
     X:    -2.3681      Y:     0.8310      Z:     0.0000

  Electronic Dipole Moment: [e a0]
     X:     2.9200      Y:    -0.2213      Z:     0.0000

  Dipole Moment: [e a0]
     X:     0.5519      Y:     0.6098      Z:     0.0000     Total:     0.8224

  Dipole Moment: [D]
     X:     1.4027      Y:     1.5499      Z:     0.0000     Total:     2.0904

*** tstop() called on c5-3.compute.lan at Tue Mar  9 14:35:04 2021
Module time:
	user time   =      60.77 seconds =       1.01 minutes
	system time =       0.91 seconds =       0.02 minutes
	total time  =          6 seconds =       0.10 minutes
Total time:
	user time   =      60.77 seconds =       1.01 minutes
	system time =       0.91 seconds =       0.02 minutes
	total time  =          6 seconds =       0.10 minutes
 MINTS: Wrapper to libmints.
   by Justin Turney

   Calculation information:
      Number of threads:                12
      Number of atoms:                   4
      Number of AO shells:              46
      Number of SO shells:              46
      Number of primitives:             82
      Number of atomic orbitals:       160
      Number of basis functions:       138

      Number of irreps:                  2
      Integral cutoff                 0.00e+00
      Number of functions per irrep: [  92   46 ]

 OEINTS: Overlap, kinetic, potential, dipole, and quadrupole integrals
         stored in file 35.

      Computing two-electron integrals...done
      Computed 22928818 non-zero two-electron integrals.
        Stored in file 33.

*** tstart() called on c5-3.compute.lan
*** at Tue Mar  9 14:35:07 2021

	Wfn Parameters:
	--------------------
	Wavefunction         = CCSD_T
	Number of irreps     = 2
	Number of MOs        = 138
	Number of active MOs = 136
	AO-Basis             = NONE
	Semicanonical        = false
	Reference            = UHF
	Print Level          = 1

	IRREP	# MOs	# FZDC	# DOCC	# SOCC	# VIRT	# FZVR
	-----	-----	------	------	------	------	------
	 Ap	   92	    2	    5	    1	    84	    0
	 App	   46	    0	    1	    1	    44	    0
	Transforming integrals...
	IWL integrals will be deleted.
	(OO|OO)...
	Presorting SO-basis two-electron integrals.
	Sorting File: SO Ints (nn|nn) nbuckets = 1
	Transforming the one-electron integrals and constructing Fock matrices
	Starting AA/AB first half-transformation.
	Sorting AA/AB half-transformed integrals.
	Starting BB first half-transformation.
	Sorting BB half-transformed integrals.
	First half integral transformation complete.
	Starting AA second half-transformation.
	Starting AB second half-transformation.
	Starting BB second half-transformation.
	Two-electron integral transformation complete.
	(OO|OV)...
	Starting AA second half-transformation.
	Starting AB second half-transformation.
	Starting BB second half-transformation.
	Two-electron integral transformation complete.
	(OO|VV)...
	Starting AA second half-transformation.
	Starting AB second half-transformation.
	Starting BB second half-transformation.
	Two-electron integral transformation complete.
	(OV|OO)...
	Starting AA/AB first half-transformation.
	Sorting AA/AB half-transformed integrals.
	Starting BB first half-transformation.
	Sorting BB half-transformed integrals.
	First half integral transformation complete.
	Starting AA second half-transformation.
	Starting AB second half-transformation.
	Starting BB second half-transformation.
	Two-electron integral transformation complete.
	(OV|OV)...
	Starting AA second half-transformation.
	Starting AB second half-transformation.
	Starting BB second half-transformation.
	Two-electron integral transformation complete.
	(OV|VV)...
	Starting AA second half-transformation.
	Starting AB second half-transformation.
	Starting BB second half-transformation.
	Two-electron integral transformation complete.
	(VV|OO)...
	Starting AA/AB first half-transformation.
	Sorting AA/AB half-transformed integrals.
	Starting BB first half-transformation.
	Sorting BB half-transformed integrals.
	First half integral transformation complete.
	Starting AA second half-transformation.
	Starting AB second half-transformation.
	Starting BB second half-transformation.
	Two-electron integral transformation complete.
	(VV|OV)...
	Starting AA second half-transformation.
	Starting AB second half-transformation.
	Starting BB second half-transformation.
	Two-electron integral transformation complete.
	(VV|VV)...
	Starting AA second half-transformation.
	Starting AB second half-transformation.
	Starting BB second half-transformation.
	Two-electron integral transformation complete.
	Frozen core energy     =   -125.47102738270141

	Size of irrep 0 of <AB|CD> integrals:     19.643 (MW) /    157.141 (MB)
	Size of irrep 1 of <AB|CD> integrals:     13.660 (MW) /    109.283 (MB)
	Total:                                    33.303 (MW) /    266.424 (MB)

	Size of irrep 0 of <ab|cd> integrals:     20.794 (MW) /    166.349 (MB)
	Size of irrep 1 of <ab|cd> integrals:     14.631 (MW) /    117.045 (MB)
	Total:                                    35.424 (MW) /    283.394 (MB)

	Size of irrep 0 of <Ab|Cd> integrals:     83.174 (MW) /    665.395 (MB)
	Size of irrep 1 of <Ab|Cd> integrals:     56.550 (MW) /    452.403 (MB)
	Total:                                   139.725 (MW) /   1117.798 (MB)

	Size of irrep 0 of <IA|BC> integrals:      5.323 (MW) /     42.586 (MB)
	Size of irrep 1 of <IA|BC> integrals:      3.193 (MW) /     25.547 (MB)
	Total:                                     8.517 (MW) /     68.133 (MB)

	Size of irrep 0 of <ia|bc> integrals:      4.348 (MW) /     34.780 (MB)
	Size of irrep 1 of <ia|bc> integrals:      2.372 (MW) /     18.972 (MB)
	Total:                                     6.719 (MW) /     53.752 (MB)

	Size of irrep 0 of <Ia|Bc> integrals:      5.472 (MW) /     43.776 (MB)
	Size of irrep 1 of <Ia|Bc> integrals:      3.309 (MW) /     26.470 (MB)
	Total:                                     8.781 (MW) /     70.246 (MB)

	Size of irrep 0 of <iA|bC> integrals:      4.232 (MW) /     33.853 (MB)
	Size of irrep 1 of <iA|bC> integrals:      2.286 (MW) /     18.289 (MB)
	Total:                                     6.518 (MW) /     52.142 (MB)

	Size of irrep 0 of tIjAb amplitudes:       0.292 (MW) /      2.335 (MB)
	Size of irrep 1 of tIjAb amplitudes:       0.120 (MW) /      0.963 (MB)
	Total:                                     0.412 (MW) /      3.297 (MB)

	Nuclear Rep. energy          =     21.94339363402451
	SCF energy                   =   -150.87480752126524
	One-electron energy          =    -83.24109071417402
	Two-electron (AA) energy     =      9.94442419614898
	Two-electron (BB) energy     =      5.29329095758865
	Two-electron (AB) energy     =     20.65620178784679
	Two-electron energy          =     35.89391694158441
	Reference energy             =   -150.87480752126649

*** tstop() called on c5-3.compute.lan at Tue Mar  9 14:35:39 2021
Module time:
	user time   =     107.43 seconds =       1.79 minutes
	system time =      16.24 seconds =       0.27 minutes
	total time  =         32 seconds =       0.53 minutes
Total time:
	user time   =     174.60 seconds =       2.91 minutes
	system time =      17.75 seconds =       0.30 minutes
	total time  =         41 seconds =       0.68 minutes
            **************************
            *                        *
            *        CCENERGY        *
            *                        *
            **************************

    Nuclear Rep. energy (wfn)     =   21.943393634024510
    SCF energy          (wfn)     = -150.874807521265240
    Reference energy    (file100) = -150.874807521266490

    Input parameters:
    -----------------
    Wave function   =     CCSD_T
    Reference wfn   =     UHF
    Brueckner       =     No
    Memory (Mbytes) =     4000.0
    Maxiter         =     50
    R_Convergence   =     1.0e-10
    E_Convergence   =     1.0e-10
    Restart         =     Yes
    DIIS            =     Yes
    AO Basis        =     NONE
    ABCD            =     NEW
    Cache Level     =     2
    Cache Type      =     LRU
    Print Level     =     1
    Num. of threads =     12
    # Amps to Print =     10
    Print MP2 Amps? =     No
    Analyze T2 Amps =     No
    Print Pair Ener =     No
    Local CC        =     No
    SCS-MP2         =     False
    SCSN-MP2        =     False
    SCS-CCSD        =     False

MP2 correlation energy -0.4159722337216796
                Solving CC Amplitude Equations
                ------------------------------
  Iter             Energy              RMS        T1Diag      D1Diag    New D1Diag    D2Diag
  ----     ---------------------    ---------   ----------  ----------  ----------   --------
     0        -0.415972233721680    0.000e+00    0.000000    0.000000    0.000000    0.000000
     1        -0.426787875375061    5.654e-02    0.010435    0.000000    0.000000    0.000000
     2        -0.434856127369757    1.682e-02    0.010919    0.000000    0.000000    0.000000
     3        -0.436965579259371    8.458e-03    0.012751    0.000000    0.000000    0.000000
     4        -0.436840165361924    2.516e-03    0.013101    0.000000    0.000000    0.000000
     5        -0.436828563441849    1.272e-03    0.013245    0.000000    0.000000    0.000000
     6        -0.436854611484662    5.019e-04    0.013258    0.000000    0.000000    0.000000
     7        -0.436858707305803    2.273e-04    0.013248    0.000000    0.000000    0.000000
     8        -0.436859467761618    7.657e-05    0.013242    0.000000    0.000000    0.000000
     9        -0.436860695119265    4.658e-05    0.013242    0.000000    0.000000    0.000000
    10        -0.436859503217023    3.821e-05    0.013242    0.000000    0.000000    0.000000
    11        -0.436859600481335    3.675e-05    0.013242    0.000000    0.000000    0.000000
    12        -0.436859457324429    3.609e-05    0.013243    0.000000    0.000000    0.000000
    13        -0.436859371178608    3.559e-05    0.013244    0.000000    0.000000    0.000000
    14        -0.436859834563963    3.461e-05    0.013250    0.000000    0.000000    0.000000
    15        -0.436859900162687    3.210e-05    0.013265    0.000000    0.000000    0.000000
    16        -0.436859857068077    2.623e-05    0.013341    0.000000    0.000000    0.000000
    17        -0.436859805696942    1.508e-05    0.013394    0.000000    0.000000    0.000000
    18        -0.436859728794978    6.744e-06    0.013416    0.000000    0.000000    0.000000
    19        -0.436859898282394    2.961e-06    0.013421    0.000000    0.000000    0.000000
    20        -0.436859985581653    1.403e-06    0.013422    0.000000    0.000000    0.000000
    21        -0.436859990929244    5.782e-07    0.013422    0.000000    0.000000    0.000000
    22        -0.436859991080307    2.258e-07    0.013422    0.000000    0.000000    0.000000
    23        -0.436859991399357    9.802e-08    0.013422    0.000000    0.000000    0.000000
    24        -0.436859991214379    4.156e-08    0.013422    0.000000    0.000000    0.000000
    25        -0.436859991913526    2.157e-08    0.013422    0.000000    0.000000    0.000000
    26        -0.436859992288738    7.264e-09    0.013422    0.000000    0.000000    0.000000
    27        -0.436859992364707    2.364e-09    0.013422    0.000000    0.000000    0.000000
    28        -0.436859992392164    1.175e-09    0.013422    0.000000    0.000000    0.000000
    29        -0.436859992391709    7.506e-10    0.013422    0.000000    0.000000    0.000000
    30        -0.436859992381733    5.521e-10    0.013422    0.000000    0.000000    0.000000
    31        -0.436859992376301    4.759e-10    0.013422    0.000000    0.000000    0.000000
    32        -0.436859992374253    4.532e-10    0.013422    0.000000    0.000000    0.000000
    33        -0.436859992372872    4.392e-10    0.013422    0.000000    0.000000    0.000000
    34        -0.436859992371931    4.050e-10    0.013422    0.000000    0.000000    0.000000
    35        -0.436859992371230    3.136e-10    0.013422    0.000000    0.000000    0.000000
    36        -0.436859992372239    1.787e-10    0.013422    0.000000    0.000000    0.000000

      * MP2 total energy                      = -151.290779754988165
      * CCSD total energy                     = -151.311667513637417
      * CCSD(T) total energy                     = -151.323925418280083
*** Psi4 exiting successfully. Buy a developer a beer!
