                               Psi4 1.3.2 release

  ==> Input File <==

--------------------------------------------------------------------------
memory 4 GB

molecule  {
0 3
O   -1.519781476630   -0.028215155356    0.000000000000
H   -0.556983962530   -0.005763259038    0.000000000000
H   -1.780393680696    0.898246091952    0.000000000000
O    1.667057517462   -0.028019376758    0.000000000000
}
set {
basis aug-cc-pvtz
reference uhf
e_convergence 10
scf_type pk
freeze_core true
}

set ccenergy {
e_convergence 10
r_convergence 10
}

e = energy('ccsd(t)')

print_out('Stephenergy {}'.format(e))

--------------------------------------------------------------------------

    Molecular point group: cs

    Geometry (in Angstrom), charge = 0, multiplicity = 3:

       Center              X                  Y                   Z               Mass
    ------------   -----------------  -----------------  -----------------  -----------------
         O           -1.519781476630    -0.028215155356     0.000000000000    15.994914619570
         H           -0.556983962530    -0.005763259038     0.000000000000     1.007825032230
         H           -1.780393680696     0.898246091952     0.000000000000     1.007825032230
         O            1.667057517462    -0.028019376758     0.000000000000    15.994914619570

  Charge       = 0
  Multiplicity = 3
  Basis Set: AUG-CC-PVTZ
    Blend: AUG-CC-PVTZ

    Orbital Energies [Eh]
    ---------------------

    Alpha Occupied:

       1Ap   -20.734948     2Ap   -20.558531     3Ap    -1.444275
       4Ap    -1.342354     5Ap    -0.734806     1App   -0.734657
       6Ap    -0.709427     7Ap    -0.636874     8Ap    -0.574390
       2App   -0.501520

    Alpha Virtual:

       9Ap     0.034574    10Ap     0.053270    11Ap     0.127525
       3App    0.131554    12Ap     0.148053    13Ap     0.161185
      14Ap     0.183428     4App    0.186314    15Ap     0.211668
      16Ap     0.241649    17Ap     0.271784     5App    0.282549
      18Ap     0.293604     6App    0.323444    19Ap     0.372258
      20Ap     0.393010    21Ap     0.459912    22Ap     0.559244
       7App    0.600067    23Ap     0.608684    24Ap     0.643529
      25Ap     0.668552    26Ap     0.712329     8App    0.713091
       9App    0.734750    10App    0.747214    27Ap     0.765934
      28Ap     0.797729    11App    0.824780    29Ap     0.851673
      30Ap     0.865731    12App    0.883333    31Ap     0.923289
      13App    0.942489    32Ap     0.944281    33Ap     0.956597
      14App    0.983456    34Ap     0.986302    35Ap     1.043084
      36Ap     1.128046    37Ap     1.168589    15App    1.177462
      38Ap     1.194335    16App    1.261312    39Ap     1.272683
      40Ap     1.324345    17App    1.528274    41Ap     1.556822
      18App    1.600920    42Ap     1.690417    43Ap     1.818415
      44Ap     1.826533    19App    1.975603    45Ap     1.975636
      46Ap     1.994880    20App    2.011204    47Ap     2.017625
      21App    2.048598    48Ap     2.060710    22App    2.122971
      49Ap     2.164654    50Ap     2.166056    23App    2.211695
      24App    2.294640    51Ap     2.301953    52Ap     2.329639
      53Ap     2.415140    25App    2.449278    54Ap     2.460700
      26App    2.524710    55Ap     2.536077    56Ap     2.632677
      57Ap     2.671356    27App    2.729188    58Ap     2.751629
      59Ap     2.865044    60Ap     2.943334    28App    2.945844
      61Ap     3.697687    62Ap     3.894677    29App    4.034902
      30App    4.058438    63Ap     4.076306    31App    4.172368
      64Ap     4.201445    65Ap     4.272515    32App    4.299784
      66Ap     4.377721    33App    4.393044    67Ap     4.436862
      34App    4.439716    68Ap     4.576984    69Ap     4.781733
      70Ap     4.960272    35App    5.154208    71Ap     5.179023
      72Ap     5.306526    73Ap     5.372569    36App    5.525092
      74Ap     5.690832    75Ap     6.196130    37App    6.310231
      76Ap     6.310273    38App    6.372904    77Ap     6.375699
      39App    6.520950    78Ap     6.527039    79Ap     6.557114
      80Ap     6.635639    40App    6.724662    81Ap     6.812288
      41App    6.818485    82Ap     6.912371    42App    6.933926
      83Ap     6.966659    84Ap     7.049620    43App    7.146889
      44App    7.274494    85Ap     7.322948    45App    7.325954
      86Ap     7.359393    46App    7.442156    87Ap     7.658070
      88Ap     7.947574    89Ap     7.964093    90Ap     8.807821
      91Ap     9.397030    92Ap    16.516383

    Beta Occupied:

       1Ap   -20.656168     2Ap   -20.558671     3Ap    -1.342961
       4Ap    -1.101824     5Ap    -0.708412     6Ap    -0.580936
       7Ap    -0.542122     1App   -0.501575

    Beta Virtual:

       8Ap     0.034222     9Ap     0.046158     2App    0.047662
      10Ap     0.057523    11Ap     0.144207    12Ap     0.150996
       3App    0.160450    13Ap     0.179788    14Ap     0.210139
      15Ap     0.218060     4App    0.225941    16Ap     0.251280
      17Ap     0.273768     5App    0.282882    18Ap     0.295846
       6App    0.327195    19Ap     0.376077    20Ap     0.403760
      21Ap     0.460650    22Ap     0.562213     7App    0.632374
      23Ap     0.638980    24Ap     0.646591    25Ap     0.671566
      26Ap     0.713007     8App    0.726874     9App    0.735912
      10App    0.748676    27Ap     0.784833    28Ap     0.810194
      29Ap     0.856819    11App    0.867527    30Ap     0.918502
      12App    0.936240    31Ap     0.943835    13App    0.949573
      32Ap     0.954196    33Ap     0.974188    34Ap     1.015812
      14App    1.024844    35Ap     1.047249    36Ap     1.154739
      37Ap     1.176458    15App    1.180755    38Ap     1.219231
      16App    1.272436    39Ap     1.274909    40Ap     1.335096
      17App    1.529102    41Ap     1.562514    18App    1.602550
      42Ap     1.717391    43Ap     1.823448    44Ap     1.834165
      45Ap     2.002092    19App    2.013705    46Ap     2.013886
      20App    2.053185    47Ap     2.065817    21App    2.170905
      48Ap     2.179526    22App    2.179637    49Ap     2.204335
      50Ap     2.228494    23App    2.249134    24App    2.296585
      51Ap     2.317279    52Ap     2.344244    53Ap     2.422331
      25App    2.451727    54Ap     2.461535    26App    2.533343
      55Ap     2.543320    56Ap     2.638815    57Ap     2.682627
      27App    2.730343    58Ap     2.758488    59Ap     2.869646
      60Ap     2.946134    28App    2.946530    61Ap     3.698141
      62Ap     3.897530    29App    4.035118    30App    4.145728
      63Ap     4.180800    64Ap     4.243219    31App    4.254972
      65Ap     4.294911    32App    4.300155    66Ap     4.392479
      33App    4.393225    34App    4.441250    67Ap     4.467888
      68Ap     4.577975    69Ap     4.783086    70Ap     4.962588
      35App    5.154194    71Ap     5.179547    72Ap     5.306744
      73Ap     5.373653    36App    5.525181    74Ap     5.691473
      75Ap     6.196591    37App    6.419189    76Ap     6.419215
      38App    6.448284    77Ap     6.451167    78Ap     6.533383
      39App    6.575865    79Ap     6.606845    80Ap     6.681715
      40App    6.729014    81Ap     6.914278    41App    7.004533
      82Ap     7.005498    42App    7.042175    83Ap     7.071469
      84Ap     7.129894    43App    7.149203    44App    7.274908
      85Ap     7.323089    45App    7.326837    86Ap     7.359883
      46App    7.442598    87Ap     7.659368    88Ap     7.947936
      89Ap     7.964258    90Ap     8.810237    91Ap     9.471616
      92Ap    16.516953

    Final Occupation by Irrep:
             Ap   App
    DOCC [     7,    1 ]
    SOCC [     1,    1 ]

  @UHF Final Energy:  -150.87435484666474

   => Energetics <=

    Nuclear Repulsion Energy =             22.8589668869056837
    One-Electron Energy =                -253.5021933696514225
    Two-Electron Energy =                  79.7688716360810020
    Total Energy =                       -150.8743548466647439

  UHF NO Occupations:
  HONO-2 :    7 Ap 1.9970292
  HONO-1 :    2App 1.0000000
  HONO-0 :    8 Ap 1.0000000
  LUNO+0 :    9 Ap 0.0029708
  LUNO+1 :   10 Ap 0.0017124
  LUNO+2 :   11 Ap 0.0000024
  LUNO+3 :   12 Ap 0.0000019

Computation Completed

Properties will be evaluated at   0.000000,   0.000000,   0.000000 [a0]

Properties computed using the SCF density matrix

  Nuclear Dipole Moment: [e a0]
     X:    -2.1905      Y:     0.8364      Z:     0.0000

  Electronic Dipole Moment: [e a0]
     X:     2.7521      Y:    -0.2166      Z:     0.0000

  Dipole Moment: [e a0]
     X:     0.5615      Y:     0.6198      Z:     0.0000     Total:     0.8364

  Dipole Moment: [D]
     X:     1.4273      Y:     1.5754      Z:     0.0000     Total:     2.1258

*** tstop() called on c5-20.compute.lan at Tue Mar  9 15:13:35 2021
Module time:
	user time   =      57.77 seconds =       0.96 minutes
	system time =       0.83 seconds =       0.01 minutes
	total time  =          5 seconds =       0.08 minutes
Total time:
	user time   =      57.77 seconds =       0.96 minutes
	system time =       0.83 seconds =       0.01 minutes
	total time  =          5 seconds =       0.08 minutes
 MINTS: Wrapper to libmints.
   by Justin Turney

   Calculation information:
      Number of threads:                12
      Number of atoms:                   4
      Number of AO shells:              46
      Number of SO shells:              46
      Number of primitives:             82
      Number of atomic orbitals:       160
      Number of basis functions:       138

      Number of irreps:                  2
      Integral cutoff                 0.00e+00
      Number of functions per irrep: [  92   46 ]

 OEINTS: Overlap, kinetic, potential, dipole, and quadrupole integrals
         stored in file 35.

      Computing two-electron integrals...done
      Computed 22944177 non-zero two-electron integrals.
        Stored in file 33.

*** tstart() called on c5-20.compute.lan
*** at Tue Mar  9 15:13:38 2021

	Wfn Parameters:
	--------------------
	Wavefunction         = CCSD_T
	Number of irreps     = 2
	Number of MOs        = 138
	Number of active MOs = 136
	AO-Basis             = NONE
	Semicanonical        = false
	Reference            = UHF
	Print Level          = 1

	IRREP	# MOs	# FZDC	# DOCC	# SOCC	# VIRT	# FZVR
	-----	-----	------	------	------	------	------
	 Ap	   92	    2	    5	    1	    84	    0
	 App	   46	    0	    1	    1	    44	    0
	Transforming integrals...
	IWL integrals will be deleted.
	(OO|OO)...
	Presorting SO-basis two-electron integrals.
	Sorting File: SO Ints (nn|nn) nbuckets = 1
	Transforming the one-electron integrals and constructing Fock matrices
	Starting AA/AB first half-transformation.
	Sorting AA/AB half-transformed integrals.
	Starting BB first half-transformation.
	Sorting BB half-transformed integrals.
	First half integral transformation complete.
	Starting AA second half-transformation.
	Starting AB second half-transformation.
	Starting BB second half-transformation.
	Two-electron integral transformation complete.
	(OO|OV)...
	Starting AA second half-transformation.
	Starting AB second half-transformation.
	Starting BB second half-transformation.
	Two-electron integral transformation complete.
	(OO|VV)...
	Starting AA second half-transformation.
	Starting AB second half-transformation.
	Starting BB second half-transformation.
	Two-electron integral transformation complete.
	(OV|OO)...
	Starting AA/AB first half-transformation.
	Sorting AA/AB half-transformed integrals.
	Starting BB first half-transformation.
	Sorting BB half-transformed integrals.
	First half integral transformation complete.
	Starting AA second half-transformation.
	Starting AB second half-transformation.
	Starting BB second half-transformation.
	Two-electron integral transformation complete.
	(OV|OV)...
	Starting AA second half-transformation.
	Starting AB second half-transformation.
	Starting BB second half-transformation.
	Two-electron integral transformation complete.
	(OV|VV)...
	Starting AA second half-transformation.
	Starting AB second half-transformation.
	Starting BB second half-transformation.
	Two-electron integral transformation complete.
	(VV|OO)...
	Starting AA/AB first half-transformation.
	Sorting AA/AB half-transformed integrals.
	Starting BB first half-transformation.
	Sorting BB half-transformed integrals.
	First half integral transformation complete.
	Starting AA second half-transformation.
	Starting AB second half-transformation.
	Starting BB second half-transformation.
	Two-electron integral transformation complete.
	(VV|OV)...
	Starting AA second half-transformation.
	Starting AB second half-transformation.
	Starting BB second half-transformation.
	Two-electron integral transformation complete.
	(VV|VV)...
	Starting AA second half-transformation.
	Starting AB second half-transformation.
	Starting BB second half-transformation.
	Two-electron integral transformation complete.
	Frozen core energy     =   -125.83135424598458

	Size of irrep 0 of <AB|CD> integrals:     19.643 (MW) /    157.141 (MB)
	Size of irrep 1 of <AB|CD> integrals:     13.660 (MW) /    109.283 (MB)
	Total:                                    33.303 (MW) /    266.424 (MB)

	Size of irrep 0 of <ab|cd> integrals:     20.794 (MW) /    166.349 (MB)
	Size of irrep 1 of <ab|cd> integrals:     14.631 (MW) /    117.045 (MB)
	Total:                                    35.424 (MW) /    283.394 (MB)

	Size of irrep 0 of <Ab|Cd> integrals:     83.174 (MW) /    665.395 (MB)
	Size of irrep 1 of <Ab|Cd> integrals:     56.550 (MW) /    452.403 (MB)
	Total:                                   139.725 (MW) /   1117.798 (MB)

	Size of irrep 0 of <IA|BC> integrals:      5.323 (MW) /     42.586 (MB)
	Size of irrep 1 of <IA|BC> integrals:      3.193 (MW) /     25.547 (MB)
	Total:                                     8.517 (MW) /     68.133 (MB)

	Size of irrep 0 of <ia|bc> integrals:      4.348 (MW) /     34.780 (MB)
	Size of irrep 1 of <ia|bc> integrals:      2.372 (MW) /     18.972 (MB)
	Total:                                     6.719 (MW) /     53.752 (MB)

	Size of irrep 0 of <Ia|Bc> integrals:      5.472 (MW) /     43.776 (MB)
	Size of irrep 1 of <Ia|Bc> integrals:      3.309 (MW) /     26.470 (MB)
	Total:                                     8.781 (MW) /     70.246 (MB)

	Size of irrep 0 of <iA|bC> integrals:      4.232 (MW) /     33.853 (MB)
	Size of irrep 1 of <iA|bC> integrals:      2.286 (MW) /     18.289 (MB)
	Total:                                     6.518 (MW) /     52.142 (MB)

	Size of irrep 0 of tIjAb amplitudes:       0.292 (MW) /      2.335 (MB)
	Size of irrep 1 of tIjAb amplitudes:       0.120 (MW) /      0.963 (MB)
	Total:                                     0.412 (MW) /      3.297 (MB)

	Nuclear Rep. energy          =     22.85896688690568
	SCF energy                   =   -150.87435484666474
	One-electron energy          =    -84.34780161265942
	Two-electron (AA) energy     =     10.12613290283358
	Two-electron (BB) energy     =      5.38778904749384
	Two-electron (AB) energy     =     20.93191217474377
	Two-electron energy          =     36.44583412507119
	Reference energy             =   -150.87435484666713

*** tstop() called on c5-20.compute.lan at Tue Mar  9 15:14:12 2021
Module time:
	user time   =     106.86 seconds =       1.78 minutes
	system time =      18.29 seconds =       0.30 minutes
	total time  =         34 seconds =       0.57 minutes
Total time:
	user time   =     171.00 seconds =       2.85 minutes
	system time =      19.67 seconds =       0.33 minutes
	total time  =         42 seconds =       0.70 minutes
            **************************
            *                        *
            *        CCENERGY        *
            *                        *
            **************************

    Nuclear Rep. energy (wfn)     =   22.858966886905684
    SCF energy          (wfn)     = -150.874354846664744
    Reference energy    (file100) = -150.874354846667131

    Input parameters:
    -----------------
    Wave function   =     CCSD_T
    Reference wfn   =     UHF
    Brueckner       =     No
    Memory (Mbytes) =     4000.0
    Maxiter         =     50
    R_Convergence   =     1.0e-10
    E_Convergence   =     1.0e-10
    Restart         =     Yes
    DIIS            =     Yes
    AO Basis        =     NONE
    ABCD            =     NEW
    Cache Level     =     2
    Cache Type      =     LRU
    Print Level     =     1
    Num. of threads =     12
    # Amps to Print =     10
    Print MP2 Amps? =     No
    Analyze T2 Amps =     No
    Print Pair Ener =     No
    Local CC        =     No
    SCS-MP2         =     False
    SCSN-MP2        =     False
    SCS-CCSD        =     False

MP2 correlation energy -0.4166439371166231
                Solving CC Amplitude Equations
                ------------------------------
  Iter             Energy              RMS        T1Diag      D1Diag    New D1Diag    D2Diag
  ----     ---------------------    ---------   ----------  ----------  ----------   --------
     0        -0.416643937116623    0.000e+00    0.000000    0.000000    0.000000    0.000000
     1        -0.427359317706534    5.688e-02    0.010549    0.000000    0.000000    0.000000
     2        -0.435458489122991    1.689e-02    0.011036    0.000000    0.000000    0.000000
     3        -0.437576954198692    8.578e-03    0.012908    0.000000    0.000000    0.000000
     4        -0.437451833880808    2.536e-03    0.013276    0.000000    0.000000    0.000000
     5        -0.437436716216537    1.328e-03    0.013434    0.000000    0.000000    0.000000
     6        -0.437464023116964    5.167e-04    0.013457    0.000000    0.000000    0.000000
     7        -0.437468841586412    2.684e-04    0.013452    0.000000    0.000000    0.000000
     8        -0.437469409854478    9.703e-05    0.013447    0.000000    0.000000    0.000000
     9        -0.437470819703890    6.966e-05    0.013449    0.000000    0.000000    0.000000
    10        -0.437469256267671    5.824e-05    0.013450    0.000000    0.000000    0.000000
    11        -0.437469386451676    5.496e-05    0.013451    0.000000    0.000000    0.000000
    12        -0.437469186406396    5.322e-05    0.013452    0.000000    0.000000    0.000000
    13        -0.437469174212516    5.227e-05    0.013454    0.000000    0.000000    0.000000
    14        -0.437470096012408    5.098e-05    0.013465    0.000000    0.000000    0.000000
    15        -0.437470432323375    4.656e-05    0.013511    0.000000    0.000000    0.000000
    16        -0.437470202198653    3.358e-05    0.013630    0.000000    0.000000    0.000000
    17        -0.437469905499947    1.703e-05    0.013702    0.000000    0.000000    0.000000
    18        -0.437469758231736    8.006e-06    0.013723    0.000000    0.000000    0.000000
    19        -0.437470004790139    3.523e-06    0.013728    0.000000    0.000000    0.000000
    20        -0.437470123088020    1.555e-06    0.013729    0.000000    0.000000    0.000000
    21        -0.437470129932665    6.209e-07    0.013729    0.000000    0.000000    0.000000
    22        -0.437470131043432    2.831e-07    0.013729    0.000000    0.000000    0.000000
    23        -0.437470130337440    1.427e-07    0.013729    0.000000    0.000000    0.000000
    24        -0.437470129533800    5.511e-08    0.013729    0.000000    0.000000    0.000000
    25        -0.437470130438903    2.738e-08    0.013729    0.000000    0.000000    0.000000
    26        -0.437470130875103    1.923e-08    0.013729    0.000000    0.000000    0.000000
    27        -0.437470131007206    1.754e-08    0.013729    0.000000    0.000000    0.000000
    28        -0.437470130985256    1.693e-08    0.013729    0.000000    0.000000    0.000000
    29        -0.437470130891353    1.652e-08    0.013729    0.000000    0.000000    0.000000
    30        -0.437470130704396    1.601e-08    0.013729    0.000000    0.000000    0.000000
    31        -0.437470130729006    1.450e-08    0.013729    0.000000    0.000000    0.000000
    32        -0.437470130977169    9.345e-09    0.013729    0.000000    0.000000    0.000000
    33        -0.437470131072721    4.350e-09    0.013729    0.000000    0.000000    0.000000
    34        -0.437470131133390    1.850e-09    0.013729    0.000000    0.000000    0.000000
    35        -0.437470131141103    7.221e-10    0.013729    0.000000    0.000000    0.000000
    36        -0.437470131140547    2.896e-10    0.013729    0.000000    0.000000    0.000000

      * MP2 total energy                      = -151.290998783783749
      * CCSD total energy                     = -151.311824977806936
      * CCSD(T) total energy                     = -151.324188066423858
*** Psi4 exiting successfully. Buy a developer a beer!
