                               Psi4 1.3.2 release

  ==> Input File <==

--------------------------------------------------------------------------
memory 4 GB

molecule  {
0 3
O   -1.496026095173   -0.004846085138    0.000000000000
H   -0.544536691832    0.143145282576    0.000000000000
H   -1.876517514047    0.878121175903    0.000000000000
O    1.648574520163   -0.059502986171    0.000000000000
}
set {
basis aug-cc-pvtz
reference uhf
e_convergence 10
scf_type pk
freeze_core true
}

set ccenergy {
e_convergence 10
r_convergence 10
}

e = energy('ccsd(t)')

print_out('Stephenergy {}'.format(e))

--------------------------------------------------------------------------

    Molecular point group: cs

    Geometry (in Angstrom), charge = 0, multiplicity = 3:

       Center              X                  Y                   Z               Mass
    ------------   -----------------  -----------------  -----------------  -----------------
         O           -1.496026095173    -0.004846085138     0.000000000000    15.994914619570
         H           -0.544536691832     0.143145282576     0.000000000000     1.007825032230
         H           -1.876517514047     0.878121175903     0.000000000000     1.007825032230
         O            1.648574520163    -0.059502986171     0.000000000000    15.994914619570

  Charge       = 0
  Multiplicity = 3
  Basis Set: AUG-CC-PVTZ
    Blend: AUG-CC-PVTZ

    Orbital Energies [Eh]
    ---------------------

    Alpha Occupied:

       1Ap   -20.733635     2Ap   -20.558426     3Ap    -1.443038
       4Ap    -1.342628     5Ap    -0.733753     1App   -0.733375
       6Ap    -0.710160     7Ap    -0.634981     8Ap    -0.574619
       2App   -0.501612

    Alpha Virtual:

       9Ap     0.034276    10Ap     0.053450    11Ap     0.128008
       3App    0.132739    12Ap     0.148137    13Ap     0.160836
      14Ap     0.183946     4App    0.187029    15Ap     0.214472
      16Ap     0.242299    17Ap     0.265243     5App    0.286261
      18Ap     0.303376     6App    0.321359    19Ap     0.365829
      20Ap     0.406092    21Ap     0.460813    22Ap     0.568092
       7App    0.602137    23Ap     0.608618    24Ap     0.628653
      25Ap     0.679774     8App    0.712081    26Ap     0.714754
       9App    0.736696    10App    0.748576    27Ap     0.753718
      28Ap     0.813522    11App    0.825929    29Ap     0.836837
      12App    0.890983    30Ap     0.891333    31Ap     0.924267
      32Ap     0.946382    13App    0.947628    33Ap     0.951939
      14App    0.973714    34Ap     0.979441    35Ap     1.043799
      36Ap     1.133659    15App    1.157049    37Ap     1.170202
      38Ap     1.189298    39Ap     1.263872    16App    1.297173
      40Ap     1.321188    17App    1.527978    41Ap     1.585834
      18App    1.599054    42Ap     1.716948    43Ap     1.812770
      44Ap     1.844699    45Ap     1.977162    19App    1.977246
      46Ap     1.978115    20App    2.013096    47Ap     2.017827
      21App    2.050400    48Ap     2.062953    22App    2.125506
      49Ap     2.156329    50Ap     2.178616    23App    2.216906
      24App    2.303317    51Ap     2.312475    52Ap     2.342494
      53Ap     2.417124    25App    2.445412    54Ap     2.459816
      55Ap     2.498602    26App    2.531717    56Ap     2.639381
      57Ap     2.713197    27App    2.728590    58Ap     2.739098
      59Ap     2.862186    60Ap     2.932787    28App    2.944231
      61Ap     3.698278    62Ap     3.898691    29App    4.037104
      30App    4.062850    63Ap     4.074817    31App    4.180180
      64Ap     4.209594    65Ap     4.267018    32App    4.301945
      33App    4.391644    66Ap     4.406943    34App    4.431280
      67Ap     4.443443    68Ap     4.602256    69Ap     4.779999
      70Ap     4.961520    35App    5.155501    71Ap     5.172094
      72Ap     5.299694    73Ap     5.389533    36App    5.525748
      74Ap     5.691423    75Ap     6.189552    37App    6.311808
      76Ap     6.311840    38App    6.376161    77Ap     6.378998
      78Ap     6.523688    39App    6.523711    79Ap     6.561998
      80Ap     6.642728    40App    6.735863    81Ap     6.814046
      41App    6.819879    82Ap     6.922794    42App    6.937316
      83Ap     6.963221    84Ap     7.051664    43App    7.149172
      44App    7.272675    85Ap     7.325808    45App    7.326357
      86Ap     7.364532    46App    7.438497    87Ap     7.650557
      88Ap     7.946483    89Ap     7.963364    90Ap     8.810354
      91Ap     9.546866    92Ap    16.340625

    Beta Occupied:

       1Ap   -20.654848     2Ap   -20.558564     3Ap    -1.343242
       4Ap    -1.100585     5Ap    -0.709220     6Ap    -0.580105
       7Ap    -0.541426     1App   -0.501657

    Beta Virtual:

       8Ap     0.034386     2App    0.048986     9Ap     0.049174
      10Ap     0.055231    11Ap     0.144031    12Ap     0.152658
       3App    0.161193    13Ap     0.178231    14Ap     0.207912
      15Ap     0.225200     4App    0.226961    16Ap     0.251174
      17Ap     0.266498     5App    0.286476    18Ap     0.305539
       6App    0.325364    19Ap     0.369785    20Ap     0.417340
      21Ap     0.462095    22Ap     0.571740    23Ap     0.629114
       7App    0.634494    24Ap     0.640635    25Ap     0.684417
      26Ap     0.715375     8App    0.723925     9App    0.740072
      10App    0.750326    27Ap     0.771113    28Ap     0.819836
      29Ap     0.865949    11App    0.869400    30Ap     0.921003
      12App    0.942558    31Ap     0.943099    13App    0.949735
      32Ap     0.953312    33Ap     0.970301    34Ap     1.018762
      14App    1.020950    35Ap     1.046521    15App    1.160334
      36Ap     1.164255    37Ap     1.174653    38Ap     1.215827
      39Ap     1.266898    16App    1.307790    40Ap     1.330156
      17App    1.528707    41Ap     1.588338    18App    1.600575
      42Ap     1.742257    43Ap     1.818799    44Ap     1.856224
      45Ap     1.985740    46Ap     2.015214    19App    2.015220
      20App    2.055544    47Ap     2.067533    21App    2.174651
      48Ap     2.176360    22App    2.179669    49Ap     2.197019
      50Ap     2.247896    23App    2.253020    24App    2.306775
      51Ap     2.318211    52Ap     2.364123    53Ap     2.421303
      25App    2.448033    54Ap     2.460573    55Ap     2.504980
      26App    2.540214    56Ap     2.646537    57Ap     2.727538
      27App    2.729993    58Ap     2.746267    59Ap     2.864060
      60Ap     2.936940    28App    2.944855    61Ap     3.698971
      62Ap     3.901286    29App    4.039472    30App    4.148259
      63Ap     4.192671    64Ap     4.243688    31App    4.263631
      65Ap     4.280297    32App    4.301991    33App    4.391717
      66Ap     4.411562    34App    4.431991    67Ap     4.487411
      68Ap     4.604386    69Ap     4.781501    70Ap     4.963622
      35App    5.155493    71Ap     5.172472    72Ap     5.299947
      73Ap     5.390803    36App    5.525828    74Ap     5.691806
      75Ap     6.190815    76Ap     6.420662    37App    6.420666
      38App    6.451301    77Ap     6.454131    78Ap     6.535697
      39App    6.577472    79Ap     6.605917    80Ap     6.687318
      40App    6.741897    81Ap     6.924637    41App    7.004952
      82Ap     7.006620    42App    7.046514    83Ap     7.069815
      84Ap     7.131407    43App    7.151612    44App    7.272947
      85Ap     7.326115    45App    7.327079    86Ap     7.365218
      46App    7.438917    87Ap     7.651373    88Ap     7.947327
      89Ap     7.963789    90Ap     8.812046    91Ap     9.621751
      92Ap    16.340936

    Final Occupation by Irrep:
             Ap   App
    DOCC [     7,    1 ]
    SOCC [     1,    1 ]

  @UHF Final Energy:  -150.87439136205595

   => Energetics <=

    Nuclear Repulsion Energy =             22.9984459726922914
    One-Electron Energy =                -253.7897981795813394
    Two-Electron Energy =                  79.9169608448331132
    Total Energy =                       -150.8743913620559454

  UHF NO Occupations:
  HONO-2 :    7 Ap 1.9970272
  HONO-1 :    8 Ap 1.0000000
  HONO-0 :    2App 1.0000000
  LUNO+0 :    9 Ap 0.0029728
  LUNO+1 :   10 Ap 0.0017127
  LUNO+2 :   11 Ap 0.0000024
  LUNO+3 :   12 Ap 0.0000019

Computation Completed

Properties will be evaluated at   0.000000,   0.000000,   0.000000 [a0]

Properties computed using the SCF density matrix

  Nuclear Dipole Moment: [e a0]
     X:    -2.2689      Y:     0.9571      Z:     0.0000

  Electronic Dipole Moment: [e a0]
     X:     2.7423      Y:    -0.2855      Z:     0.0000

  Dipole Moment: [e a0]
     X:     0.4734      Y:     0.6716      Z:     0.0000     Total:     0.8216

  Dipole Moment: [D]
     X:     1.2032      Y:     1.7069      Z:     0.0000     Total:     2.0883

*** tstop() called on c2-19.compute.lan at Tue Mar  9 15:24:38 2021
Module time:
	user time   =      58.96 seconds =       0.98 minutes
	system time =       2.60 seconds =       0.04 minutes
	total time  =          6 seconds =       0.10 minutes
Total time:
	user time   =      58.96 seconds =       0.98 minutes
	system time =       2.60 seconds =       0.04 minutes
	total time  =          6 seconds =       0.10 minutes
 MINTS: Wrapper to libmints.
   by Justin Turney

   Calculation information:
      Number of threads:                12
      Number of atoms:                   4
      Number of AO shells:              46
      Number of SO shells:              46
      Number of primitives:             82
      Number of atomic orbitals:       160
      Number of basis functions:       138

      Number of irreps:                  2
      Integral cutoff                 0.00e+00
      Number of functions per irrep: [  92   46 ]

 OEINTS: Overlap, kinetic, potential, dipole, and quadrupole integrals
         stored in file 35.

      Computing two-electron integrals...done
      Computed 22925278 non-zero two-electron integrals.
        Stored in file 33.

*** tstart() called on c2-19.compute.lan
*** at Tue Mar  9 15:24:42 2021

	Wfn Parameters:
	--------------------
	Wavefunction         = CCSD_T
	Number of irreps     = 2
	Number of MOs        = 138
	Number of active MOs = 136
	AO-Basis             = NONE
	Semicanonical        = false
	Reference            = UHF
	Print Level          = 1

	IRREP	# MOs	# FZDC	# DOCC	# SOCC	# VIRT	# FZVR
	-----	-----	------	------	------	------	------
	 Ap	   92	    2	    5	    1	    84	    0
	 App	   46	    0	    1	    1	    44	    0
	Transforming integrals...
	IWL integrals will be deleted.
	(OO|OO)...
	Presorting SO-basis two-electron integrals.
	Sorting File: SO Ints (nn|nn) nbuckets = 1
	Transforming the one-electron integrals and constructing Fock matrices
	Starting AA/AB first half-transformation.
	Sorting AA/AB half-transformed integrals.
	Starting BB first half-transformation.
	Sorting BB half-transformed integrals.
	First half integral transformation complete.
	Starting AA second half-transformation.
	Starting AB second half-transformation.
	Starting BB second half-transformation.
	Two-electron integral transformation complete.
	(OO|OV)...
	Starting AA second half-transformation.
	Starting AB second half-transformation.
	Starting BB second half-transformation.
	Two-electron integral transformation complete.
	(OO|VV)...
	Starting AA second half-transformation.
	Starting AB second half-transformation.
	Starting BB second half-transformation.
	Two-electron integral transformation complete.
	(OV|OO)...
	Starting AA/AB first half-transformation.
	Sorting AA/AB half-transformed integrals.
	Starting BB first half-transformation.
	Sorting BB half-transformed integrals.
	First half integral transformation complete.
	Starting AA second half-transformation.
	Starting AB second half-transformation.
	Starting BB second half-transformation.
	Two-electron integral transformation complete.
	(OV|OV)...
	Starting AA second half-transformation.
	Starting AB second half-transformation.
	Starting BB second half-transformation.
	Two-electron integral transformation complete.
	(OV|VV)...
	Starting AA second half-transformation.
	Starting AB second half-transformation.
	Starting BB second half-transformation.
	Two-electron integral transformation complete.
	(VV|OO)...
	Starting AA/AB first half-transformation.
	Sorting AA/AB half-transformed integrals.
	Starting BB first half-transformation.
	Sorting BB half-transformed integrals.
	First half integral transformation complete.
	Starting AA second half-transformation.
	Starting AB second half-transformation.
	Starting BB second half-transformation.
	Two-electron integral transformation complete.
	(VV|OV)...
	Starting AA second half-transformation.
	Starting AB second half-transformation.
	Starting BB second half-transformation.
	Two-electron integral transformation complete.
	(VV|VV)...
	Starting AA second half-transformation.
	Starting AB second half-transformation.
	Starting BB second half-transformation.
	Two-electron integral transformation complete.
	Frozen core energy     =   -125.89267722998810

	Size of irrep 0 of <AB|CD> integrals:     19.643 (MW) /    157.141 (MB)
	Size of irrep 1 of <AB|CD> integrals:     13.660 (MW) /    109.283 (MB)
	Total:                                    33.303 (MW) /    266.424 (MB)

	Size of irrep 0 of <ab|cd> integrals:     20.794 (MW) /    166.349 (MB)
	Size of irrep 1 of <ab|cd> integrals:     14.631 (MW) /    117.045 (MB)
	Total:                                    35.424 (MW) /    283.394 (MB)

	Size of irrep 0 of <Ab|Cd> integrals:     83.174 (MW) /    665.395 (MB)
	Size of irrep 1 of <Ab|Cd> integrals:     56.550 (MW) /    452.403 (MB)
	Total:                                   139.725 (MW) /   1117.798 (MB)

	Size of irrep 0 of <IA|BC> integrals:      5.323 (MW) /     42.586 (MB)
	Size of irrep 1 of <IA|BC> integrals:      3.193 (MW) /     25.547 (MB)
	Total:                                     8.517 (MW) /     68.133 (MB)

	Size of irrep 0 of <ia|bc> integrals:      4.348 (MW) /     34.780 (MB)
	Size of irrep 1 of <ia|bc> integrals:      2.372 (MW) /     18.972 (MB)
	Total:                                     6.719 (MW) /     53.752 (MB)

	Size of irrep 0 of <Ia|Bc> integrals:      5.472 (MW) /     43.776 (MB)
	Size of irrep 1 of <Ia|Bc> integrals:      3.309 (MW) /     26.470 (MB)
	Total:                                     8.781 (MW) /     70.246 (MB)

	Size of irrep 0 of <iA|bC> integrals:      4.232 (MW) /     33.853 (MB)
	Size of irrep 1 of <iA|bC> integrals:      2.286 (MW) /     18.289 (MB)
	Total:                                     6.518 (MW) /     52.142 (MB)

	Size of irrep 0 of tIjAb amplitudes:       0.292 (MW) /      2.335 (MB)
	Size of irrep 1 of tIjAb amplitudes:       0.120 (MW) /      0.963 (MB)
	Total:                                     0.412 (MW) /      3.297 (MB)

	Nuclear Rep. energy          =     22.99844597269229
	SCF energy                   =   -150.87439136205595
	One-electron energy          =    -84.50991665417260
	Two-electron (AA) energy     =     10.15402719107542
	Two-electron (BB) energy     =      5.40153362536761
	Two-electron (AB) energy     =     20.97419573296841
	Two-electron energy          =     36.52975654941145
	Reference energy             =   -150.87439136205697

*** tstop() called on c2-19.compute.lan at Tue Mar  9 15:25:30 2021
Module time:
	user time   =     274.11 seconds =       4.57 minutes
	system time =      23.28 seconds =       0.39 minutes
	total time  =         48 seconds =       0.80 minutes
Total time:
	user time   =     340.38 seconds =       5.67 minutes
	system time =      26.83 seconds =       0.45 minutes
	total time  =         58 seconds =       0.97 minutes
            **************************
            *                        *
            *        CCENERGY        *
            *                        *
            **************************

    Nuclear Rep. energy (wfn)     =   22.998445972692291
    SCF energy          (wfn)     = -150.874391362055945
    Reference energy    (file100) = -150.874391362056969

    Input parameters:
    -----------------
    Wave function   =     CCSD_T
    Reference wfn   =     UHF
    Brueckner       =     No
    Memory (Mbytes) =     4000.0
    Maxiter         =     50
    R_Convergence   =     1.0e-10
    E_Convergence   =     1.0e-10
    Restart         =     Yes
    DIIS            =     Yes
    AO Basis        =     NONE
    ABCD            =     NEW
    Cache Level     =     2
    Cache Type      =     LRU
    Print Level     =     1
    Num. of threads =     12
    # Amps to Print =     10
    Print MP2 Amps? =     No
    Analyze T2 Amps =     No
    Print Pair Ener =     No
    Local CC        =     No
    SCS-MP2         =     False
    SCSN-MP2        =     False
    SCS-CCSD        =     False

MP2 correlation energy -0.4166866849664672
                Solving CC Amplitude Equations
                ------------------------------
  Iter             Energy              RMS        T1Diag      D1Diag    New D1Diag    D2Diag
  ----     ---------------------    ---------   ----------  ----------  ----------   --------
     0        -0.416686684966467    0.000e+00    0.000000    0.000000    0.000000    0.000000
     1        -0.427394142248493    5.692e-02    0.010565    0.000000    0.000000    0.000000
     2        -0.435485960321097    1.690e-02    0.011045    0.000000    0.000000    0.000000
     3        -0.437608243807004    8.589e-03    0.012921    0.000000    0.000000    0.000000
     4        -0.437482524248437    2.538e-03    0.013290    0.000000    0.000000    0.000000
     5        -0.437467633523681    1.329e-03    0.013449    0.000000    0.000000    0.000000
     6        -0.437495077011169    5.176e-04    0.013472    0.000000    0.000000    0.000000
     7        -0.437499786712997    2.703e-04    0.013467    0.000000    0.000000    0.000000
     8        -0.437500361334624    1.020e-04    0.013463    0.000000    0.000000    0.000000
     9        -0.437501758300274    7.591e-05    0.013464    0.000000    0.000000    0.000000
    10        -0.437500140855673    6.494e-05    0.013466    0.000000    0.000000    0.000000
    11        -0.437500301381082    6.172e-05    0.013467    0.000000    0.000000    0.000000
    12        -0.437500023812787    5.990e-05    0.013469    0.000000    0.000000    0.000000
    13        -0.437500025993493    5.878e-05    0.013472    0.000000    0.000000    0.000000
    14        -0.437501206492725    5.697e-05    0.013490    0.000000    0.000000    0.000000
    15        -0.437501594510836    5.050e-05    0.013562    0.000000    0.000000    0.000000
    16        -0.437501355301864    3.366e-05    0.013699    0.000000    0.000000    0.000000
    17        -0.437501000746241    1.619e-05    0.013767    0.000000    0.000000    0.000000
    18        -0.437500862033618    7.599e-06    0.013785    0.000000    0.000000    0.000000
    19        -0.437501117936716    3.374e-06    0.013789    0.000000    0.000000    0.000000
    20        -0.437501230977636    1.515e-06    0.013790    0.000000    0.000000    0.000000
    21        -0.437501239295714    6.077e-07    0.013790    0.000000    0.000000    0.000000
    22        -0.437501240908416    2.957e-07    0.013790    0.000000    0.000000    0.000000
    23        -0.437501239655145    1.552e-07    0.013790    0.000000    0.000000    0.000000
    24        -0.437501238775504    6.508e-08    0.013790    0.000000    0.000000    0.000000
    25        -0.437501239778398    3.567e-08    0.013790    0.000000    0.000000    0.000000
    26        -0.437501240262453    2.799e-08    0.013790    0.000000    0.000000    0.000000
    27        -0.437501240425692    2.636e-08    0.013790    0.000000    0.000000    0.000000
    28        -0.437501240367000    2.563e-08    0.013790    0.000000    0.000000    0.000000
    29        -0.437501240194228    2.501e-08    0.013790    0.000000    0.000000    0.000000
    30        -0.437501239907264    2.404e-08    0.013790    0.000000    0.000000    0.000000
    31        -0.437501240086383    2.100e-08    0.013790    0.000000    0.000000    0.000000
    32        -0.437501240466258    1.162e-08    0.013790    0.000000    0.000000    0.000000
    33        -0.437501240590369    5.163e-09    0.013790    0.000000    0.000000    0.000000
    34        -0.437501240657070    2.098e-09    0.013790    0.000000    0.000000    0.000000
    35        -0.437501240664521    7.727e-10    0.013790    0.000000    0.000000    0.000000
    36        -0.437501240665591    3.297e-10    0.013790    0.000000    0.000000    0.000000

      * MP2 total energy                      = -151.291078047023433
      * CCSD total energy                     = -151.311892602722963
      * CCSD(T) total energy                     = -151.324259476503016
*** Psi4 exiting successfully. Buy a developer a beer!
