                               Psi4 1.3.2 release

  ==> Input File <==

--------------------------------------------------------------------------
memory 4 GB

molecule  {
0 3
O   -1.504254809230   -0.001190138792    0.000000000000
H   -0.556931196049    0.156680383488    0.000000000000
H   -1.894374072420    0.877274584132    0.000000000000
O    1.658709326179   -0.063958423945    0.000000000000
}
set {
basis aug-cc-pvtz
reference uhf
e_convergence 10
scf_type pk
freeze_core true
}

set ccenergy {
e_convergence 10
r_convergence 10
}

e = energy('ccsd(t)')

print_out('Stephenergy {}'.format(e))

--------------------------------------------------------------------------

    Molecular point group: cs

    Geometry (in Angstrom), charge = 0, multiplicity = 3:

       Center              X                  Y                   Z               Mass
    ------------   -----------------  -----------------  -----------------  -----------------
         O           -1.504254809230    -0.001190138792     0.000000000000    15.994914619570
         H           -0.556931196049     0.156680383488     0.000000000000     1.007825032230
         H           -1.894374072420     0.877274584132     0.000000000000     1.007825032230
         O            1.658709326179    -0.063958423945     0.000000000000    15.994914619570

  Charge       = 0
  Multiplicity = 3
  Basis Set: AUG-CC-PVTZ
    Blend: AUG-CC-PVTZ

    Orbital Energies [Eh]
    ---------------------

    Alpha Occupied:

       1Ap   -20.732917     2Ap   -20.558612     3Ap    -1.442246
       4Ap    -1.343679     5Ap    -0.733041     1App   -0.732648
       6Ap    -0.710870     7Ap    -0.634346     8Ap    -0.575339
       2App   -0.502077

    Alpha Virtual:

       9Ap     0.034200    10Ap     0.053491    11Ap     0.128192
       3App    0.132942    12Ap     0.148151    13Ap     0.160786
      14Ap     0.183916     4App    0.186765    15Ap     0.214114
      16Ap     0.242093    17Ap     0.264321     5App    0.286412
      18Ap     0.303926     6App    0.320671    19Ap     0.364737
      20Ap     0.406414    21Ap     0.460479    22Ap     0.568492
       7App    0.602737    23Ap     0.608821    24Ap     0.627200
      25Ap     0.682348     8App    0.709441    26Ap     0.714702
       9App    0.736631    10App    0.748545    27Ap     0.750774
      28Ap     0.811655    11App    0.826088    29Ap     0.837450
      12App    0.891004    30Ap     0.891959    31Ap     0.922818
      32Ap     0.945162    13App    0.947425    33Ap     0.951447
      14App    0.971642    34Ap     0.979001    35Ap     1.043287
      36Ap     1.135987    15App    1.153869    37Ap     1.170346
      38Ap     1.185369    39Ap     1.260467    16App    1.295000
      40Ap     1.316413    17App    1.527584    41Ap     1.586837
      18App    1.598688    42Ap     1.715354    43Ap     1.809975
      44Ap     1.843028    45Ap     1.977695    19App    1.977845
      46Ap     1.979052    20App    2.013312    47Ap     2.018156
      21App    2.048363    48Ap     2.060788    22App    2.122232
      49Ap     2.152660    50Ap     2.176002    23App    2.212338
      24App    2.302792    51Ap     2.311405    52Ap     2.338460
      53Ap     2.414769    25App    2.441613    54Ap     2.457946
      55Ap     2.490820    26App    2.526723    56Ap     2.630228
      57Ap     2.711559    27App    2.727057    58Ap     2.734597
      59Ap     2.860873    60Ap     2.933775    28App    2.943470
      61Ap     3.696649    62Ap     3.892707    29App    4.037001
      30App    4.063302    63Ap     4.074197    31App    4.179006
      64Ap     4.209805    65Ap     4.266962    32App    4.302540
      33App    4.391756    66Ap     4.407134    34App    4.431104
      67Ap     4.445947    68Ap     4.603345    69Ap     4.780280
      70Ap     4.961066    35App    5.159020    71Ap     5.175408
      72Ap     5.299565    73Ap     5.395856    36App    5.529780
      74Ap     5.693366    75Ap     6.191133    37App    6.312504
      76Ap     6.312535    38App    6.375518    77Ap     6.378216
      39App    6.517592    78Ap     6.518866    79Ap     6.559063
      80Ap     6.636809    40App    6.736184    81Ap     6.814623
      41App    6.820197    82Ap     6.923925    42App    6.937015
      83Ap     6.961829    84Ap     7.050994    43App    7.149714
      44App    7.272700    85Ap     7.327632    45App    7.329224
      86Ap     7.365601    46App    7.434802    87Ap     7.650513
      88Ap     7.948054    89Ap     7.965087    90Ap     8.817191
      91Ap     9.513767    92Ap    16.350549

    Beta Occupied:

       1Ap   -20.654135     2Ap   -20.558739     3Ap    -1.344244
       4Ap    -1.099781     5Ap    -0.710128     6Ap    -0.580187
       7Ap    -0.541191     1App   -0.502119

    Beta Virtual:

       8Ap     0.034360     2App    0.049465     9Ap     0.049707
      10Ap     0.055198    11Ap     0.143798    12Ap     0.152996
       3App    0.161170    13Ap     0.178065    14Ap     0.207826
      15Ap     0.225496     4App    0.227257    16Ap     0.250835
      17Ap     0.265582     5App    0.286619    18Ap     0.306058
       6App    0.324387    19Ap     0.368635    20Ap     0.417299
      21Ap     0.461764    22Ap     0.572065    23Ap     0.627966
       7App    0.635137    24Ap     0.640535    25Ap     0.687154
      26Ap     0.715362     8App    0.721546     9App    0.739797
      10App    0.750167    27Ap     0.767318    28Ap     0.818031
      29Ap     0.868354    11App    0.869108    30Ap     0.920088
      12App    0.941793    31Ap     0.941830    13App    0.949595
      32Ap     0.952842    33Ap     0.970105    34Ap     1.017808
      14App    1.020190    35Ap     1.045536    15App    1.157016
      36Ap     1.163698    37Ap     1.173535    38Ap     1.216759
      39Ap     1.263557    16App    1.305587    40Ap     1.325166
      17App    1.528282    41Ap     1.589085    18App    1.600130
      42Ap     1.741578    43Ap     1.815512    44Ap     1.853660
      45Ap     1.986929    46Ap     2.015807    19App    2.015818
      20App    2.053687    47Ap     2.065525    21App    2.170184
      48Ap     2.176136    22App    2.179687    49Ap     2.193877
      50Ap     2.244611    23App    2.249845    24App    2.306202
      51Ap     2.316885    52Ap     2.361234    53Ap     2.419347
      25App    2.444317    54Ap     2.458721    55Ap     2.497103
      26App    2.535139    56Ap     2.637342    27App    2.728384
      57Ap     2.728573    58Ap     2.737908    59Ap     2.862699
      60Ap     2.938273    28App    2.944090    61Ap     3.697319
      62Ap     3.895036    29App    4.040111    30App    4.147704
      63Ap     4.193934    64Ap     4.245240    31App    4.262784
      65Ap     4.277388    32App    4.302603    33App    4.391825
      66Ap     4.410789    34App    4.431772    67Ap     4.490406
      68Ap     4.605868    69Ap     4.781925    70Ap     4.963004
      35App    5.159006    71Ap     5.175686    72Ap     5.299801
      73Ap     5.397094    36App    5.529840    74Ap     5.693721
      75Ap     6.192370    76Ap     6.421353    37App    6.421358
      38App    6.450705    77Ap     6.453424    78Ap     6.533916
      39App    6.571500    79Ap     6.599917    80Ap     6.681818
      40App    6.742139    81Ap     6.926137    41App    7.005250
      82Ap     7.006991    42App    7.046392    83Ap     7.068338
      84Ap     7.130714    43App    7.152105    44App    7.272928
      85Ap     7.327930    45App    7.329950    86Ap     7.366418
      46App    7.435206    87Ap     7.651362    88Ap     7.949201
      89Ap     7.965327    90Ap     8.818731    91Ap     9.588749
      92Ap    16.350818

    Final Occupation by Irrep:
             Ap   App
    DOCC [     7,    1 ]
    SOCC [     1,    1 ]

  @UHF Final Energy:  -150.87457133213354

   => Energetics <=

    Nuclear Repulsion Energy =             22.9190899956846437
    One-Electron Energy =                -253.6310230894588358
    Two-Electron Energy =                  79.8373617616406648
    Total Energy =                       -150.8745713321335131

  UHF NO Occupations:
  HONO-2 :    7 Ap 1.9970287
  HONO-1 :    8 Ap 1.0000000
  HONO-0 :    2App 1.0000000
  LUNO+0 :    9 Ap 0.0029713
  LUNO+1 :   10 Ap 0.0017152
  LUNO+2 :   11 Ap 0.0000024
  LUNO+3 :   12 Ap 0.0000017

Computation Completed

Properties will be evaluated at   0.000000,   0.000000,   0.000000 [a0]

Properties computed using the SCF density matrix

  Nuclear Dipole Moment: [e a0]
     X:    -2.2973      Y:     0.9690      Z:     0.0000

  Electronic Dipole Moment: [e a0]
     X:     2.7579      Y:    -0.2935      Z:     0.0000

  Dipole Moment: [e a0]
     X:     0.4606      Y:     0.6755      Z:     0.0000     Total:     0.8176

  Dipole Moment: [D]
     X:     1.1708      Y:     1.7169      Z:     0.0000     Total:     2.0781

*** tstop() called on c5-20.compute.lan at Tue Mar  9 15:41:08 2021
Module time:
	user time   =      59.93 seconds =       1.00 minutes
	system time =       0.88 seconds =       0.01 minutes
	total time  =          6 seconds =       0.10 minutes
Total time:
	user time   =      59.93 seconds =       1.00 minutes
	system time =       0.88 seconds =       0.01 minutes
	total time  =          6 seconds =       0.10 minutes
 MINTS: Wrapper to libmints.
   by Justin Turney

   Calculation information:
      Number of threads:                12
      Number of atoms:                   4
      Number of AO shells:              46
      Number of SO shells:              46
      Number of primitives:             82
      Number of atomic orbitals:       160
      Number of basis functions:       138

      Number of irreps:                  2
      Integral cutoff                 0.00e+00
      Number of functions per irrep: [  92   46 ]

 OEINTS: Overlap, kinetic, potential, dipole, and quadrupole integrals
         stored in file 35.

      Computing two-electron integrals...done
      Computed 22933041 non-zero two-electron integrals.
        Stored in file 33.

*** tstart() called on c5-20.compute.lan
*** at Tue Mar  9 15:41:11 2021

	Wfn Parameters:
	--------------------
	Wavefunction         = CCSD_T
	Number of irreps     = 2
	Number of MOs        = 138
	Number of active MOs = 136
	AO-Basis             = NONE
	Semicanonical        = false
	Reference            = UHF
	Print Level          = 1

	IRREP	# MOs	# FZDC	# DOCC	# SOCC	# VIRT	# FZVR
	-----	-----	------	------	------	------	------
	 Ap	   92	    2	    5	    1	    84	    0
	 App	   46	    0	    1	    1	    44	    0
	Transforming integrals...
	IWL integrals will be deleted.
	(OO|OO)...
	Presorting SO-basis two-electron integrals.
	Sorting File: SO Ints (nn|nn) nbuckets = 1
	Transforming the one-electron integrals and constructing Fock matrices
	Starting AA/AB first half-transformation.
	Sorting AA/AB half-transformed integrals.
	Starting BB first half-transformation.
	Sorting BB half-transformed integrals.
	First half integral transformation complete.
	Starting AA second half-transformation.
	Starting AB second half-transformation.
	Starting BB second half-transformation.
	Two-electron integral transformation complete.
	(OO|OV)...
	Starting AA second half-transformation.
	Starting AB second half-transformation.
	Starting BB second half-transformation.
	Two-electron integral transformation complete.
	(OO|VV)...
	Starting AA second half-transformation.
	Starting AB second half-transformation.
	Starting BB second half-transformation.
	Two-electron integral transformation complete.
	(OV|OO)...
	Starting AA/AB first half-transformation.
	Sorting AA/AB half-transformed integrals.
	Starting BB first half-transformation.
	Sorting BB half-transformed integrals.
	First half integral transformation complete.
	Starting AA second half-transformation.
	Starting AB second half-transformation.
	Starting BB second half-transformation.
	Two-electron integral transformation complete.
	(OV|OV)...
	Starting AA second half-transformation.
	Starting AB second half-transformation.
	Starting BB second half-transformation.
	Two-electron integral transformation complete.
	(OV|VV)...
	Starting AA second half-transformation.
	Starting AB second half-transformation.
	Starting BB second half-transformation.
	Two-electron integral transformation complete.
	(VV|OO)...
	Starting AA/AB first half-transformation.
	Sorting AA/AB half-transformed integrals.
	Starting BB first half-transformation.
	Sorting BB half-transformed integrals.
	First half integral transformation complete.
	Starting AA second half-transformation.
	Starting AB second half-transformation.
	Starting BB second half-transformation.
	Two-electron integral transformation complete.
	(VV|OV)...
	Starting AA second half-transformation.
	Starting AB second half-transformation.
	Starting BB second half-transformation.
	Two-electron integral transformation complete.
	(VV|VV)...
	Starting AA second half-transformation.
	Starting AB second half-transformation.
	Starting BB second half-transformation.
	Two-electron integral transformation complete.
	Frozen core energy     =   -125.86090014883777

	Size of irrep 0 of <AB|CD> integrals:     19.643 (MW) /    157.141 (MB)
	Size of irrep 1 of <AB|CD> integrals:     13.660 (MW) /    109.283 (MB)
	Total:                                    33.303 (MW) /    266.424 (MB)

	Size of irrep 0 of <ab|cd> integrals:     20.794 (MW) /    166.349 (MB)
	Size of irrep 1 of <ab|cd> integrals:     14.631 (MW) /    117.045 (MB)
	Total:                                    35.424 (MW) /    283.394 (MB)

	Size of irrep 0 of <Ab|Cd> integrals:     83.174 (MW) /    665.395 (MB)
	Size of irrep 1 of <Ab|Cd> integrals:     56.550 (MW) /    452.403 (MB)
	Total:                                   139.725 (MW) /   1117.798 (MB)

	Size of irrep 0 of <IA|BC> integrals:      5.323 (MW) /     42.586 (MB)
	Size of irrep 1 of <IA|BC> integrals:      3.193 (MW) /     25.547 (MB)
	Total:                                     8.517 (MW) /     68.133 (MB)

	Size of irrep 0 of <ia|bc> integrals:      4.348 (MW) /     34.780 (MB)
	Size of irrep 1 of <ia|bc> integrals:      2.372 (MW) /     18.972 (MB)
	Total:                                     6.719 (MW) /     53.752 (MB)

	Size of irrep 0 of <Ia|Bc> integrals:      5.472 (MW) /     43.776 (MB)
	Size of irrep 1 of <Ia|Bc> integrals:      3.309 (MW) /     26.470 (MB)
	Total:                                     8.781 (MW) /     70.246 (MB)

	Size of irrep 0 of <iA|bC> integrals:      4.232 (MW) /     33.853 (MB)
	Size of irrep 1 of <iA|bC> integrals:      2.286 (MW) /     18.289 (MB)
	Total:                                     6.518 (MW) /     52.142 (MB)

	Size of irrep 0 of tIjAb amplitudes:       0.292 (MW) /      2.335 (MB)
	Size of irrep 1 of tIjAb amplitudes:       0.120 (MW) /      0.963 (MB)
	Total:                                     0.412 (MW) /      3.297 (MB)

	Nuclear Rep. energy          =     22.91908999568464
	SCF energy                   =   -150.87457133213354
	One-electron energy          =    -84.41362613456641
	Two-electron (AA) energy     =     10.13735327129369
	Two-electron (BB) energy     =      5.39316137071019
	Two-electron (AB) energy     =     20.95035031358154
	Two-electron energy          =     36.48086495558542
	Reference energy             =   -150.87457133213411

*** tstop() called on c5-20.compute.lan at Tue Mar  9 15:41:44 2021
Module time:
	user time   =     105.23 seconds =       1.75 minutes
	system time =      18.30 seconds =       0.30 minutes
	total time  =         33 seconds =       0.55 minutes
Total time:
	user time   =     171.50 seconds =       2.86 minutes
	system time =      19.79 seconds =       0.33 minutes
	total time  =         42 seconds =       0.70 minutes
            **************************
            *                        *
            *        CCENERGY        *
            *                        *
            **************************

    Nuclear Rep. energy (wfn)     =   22.919089995684644
    SCF energy          (wfn)     = -150.874571332133542
    Reference energy    (file100) = -150.874571332134110

    Input parameters:
    -----------------
    Wave function   =     CCSD_T
    Reference wfn   =     UHF
    Brueckner       =     No
    Memory (Mbytes) =     4000.0
    Maxiter         =     50
    R_Convergence   =     1.0e-10
    E_Convergence   =     1.0e-10
    Restart         =     Yes
    DIIS            =     Yes
    AO Basis        =     NONE
    ABCD            =     NEW
    Cache Level     =     2
    Cache Type      =     LRU
    Print Level     =     1
    Num. of threads =     12
    # Amps to Print =     10
    Print MP2 Amps? =     No
    Analyze T2 Amps =     No
    Print Pair Ener =     No
    Local CC        =     No
    SCS-MP2         =     False
    SCSN-MP2        =     False
    SCS-CCSD        =     False

MP2 correlation energy -0.4165093645780893
                Solving CC Amplitude Equations
                ------------------------------
  Iter             Energy              RMS        T1Diag      D1Diag    New D1Diag    D2Diag
  ----     ---------------------    ---------   ----------  ----------  ----------   --------
     0        -0.416509364578089    0.000e+00    0.000000    0.000000    0.000000    0.000000
     1        -0.427258121070657    5.681e-02    0.010537    0.000000    0.000000    0.000000
     2        -0.435335285499986    1.687e-02    0.011018    0.000000    0.000000    0.000000
     3        -0.437451970154559    8.558e-03    0.012885    0.000000    0.000000    0.000000
     4        -0.437326165884706    2.532e-03    0.013251    0.000000    0.000000    0.000000
     5        -0.437311794258967    1.318e-03    0.013407    0.000000    0.000000    0.000000
     6        -0.437339014822550    5.138e-04    0.013429    0.000000    0.000000    0.000000
     7        -0.437343626814259    2.633e-04    0.013423    0.000000    0.000000    0.000000
     8        -0.437344225935222    9.911e-05    0.013418    0.000000    0.000000    0.000000
     9        -0.437345587185596    7.402e-05    0.013420    0.000000    0.000000    0.000000
    10        -0.437344042128514    6.407e-05    0.013421    0.000000    0.000000    0.000000
    11        -0.437344186458058    6.129e-05    0.013422    0.000000    0.000000    0.000000
    12        -0.437343896334704    5.962e-05    0.013424    0.000000    0.000000    0.000000
    13        -0.437343885706306    5.848e-05    0.013428    0.000000    0.000000    0.000000
    14        -0.437345062349977    5.658e-05    0.013446    0.000000    0.000000    0.000000
    15        -0.437345441999194    5.001e-05    0.013519    0.000000    0.000000    0.000000
    16        -0.437345220810501    3.341e-05    0.013661    0.000000    0.000000    0.000000
    17        -0.437344875622290    1.613e-05    0.013730    0.000000    0.000000    0.000000
    18        -0.437344747831956    7.562e-06    0.013747    0.000000    0.000000    0.000000
    19        -0.437345007186584    3.342e-06    0.013752    0.000000    0.000000    0.000000
    20        -0.437345118536445    1.498e-06    0.013753    0.000000    0.000000    0.000000
    21        -0.437345126460424    5.892e-07    0.013753    0.000000    0.000000    0.000000
    22        -0.437345127657952    2.793e-07    0.013753    0.000000    0.000000    0.000000
    23        -0.437345126547895    1.448e-07    0.013753    0.000000    0.000000    0.000000
    24        -0.437345125886972    6.002e-08    0.013753    0.000000    0.000000    0.000000
    25        -0.437345126844353    3.283e-08    0.013753    0.000000    0.000000    0.000000
    26        -0.437345127302081    2.549e-08    0.013753    0.000000    0.000000    0.000000
    27        -0.437345127460937    2.387e-08    0.013753    0.000000    0.000000    0.000000
    28        -0.437345127408286    2.311e-08    0.013753    0.000000    0.000000    0.000000
    29        -0.437345127244283    2.243e-08    0.013753    0.000000    0.000000    0.000000
    30        -0.437345126979605    2.132e-08    0.013753    0.000000    0.000000    0.000000
    31        -0.437345127183852    1.794e-08    0.013753    0.000000    0.000000    0.000000
    32        -0.437345127526175    9.318e-09    0.013753    0.000000    0.000000    0.000000
    33        -0.437345127625888    4.077e-09    0.013753    0.000000    0.000000    0.000000
    34        -0.437345127675933    1.664e-09    0.013753    0.000000    0.000000    0.000000
    35        -0.437345127682371    6.586e-10    0.013753    0.000000    0.000000    0.000000
    36        -0.437345127682008    2.822e-10    0.013753    0.000000    0.000000    0.000000

      * MP2 total energy                      = -151.291080696712186
      * CCSD total energy                     = -151.311916459815336
      * CCSD(T) total energy                     = -151.324257603761765
*** Psi4 exiting successfully. Buy a developer a beer!
