                               Psi4 1.3.2 release

  ==> Input File <==

--------------------------------------------------------------------------
memory 4 GB

molecule  {
0 3
O    0.000000000000    0.000000000000   -1.632908056819
H    0.000000000000   -0.756136820032   -1.037073650819
H   -0.000000000000    0.756136820032   -1.037073650819
O    0.000000000000    0.000000000000    1.763598193081
}
set {
basis aug-cc-pvtz
reference uhf
e_convergence 10
scf_type pk
freeze_core true
}

set ccenergy {
e_convergence 10
r_convergence 10
}

e = energy('ccsd(t)')

print_out('Stephenergy {}'.format(e))

--------------------------------------------------------------------------

    Molecular point group: c2v

    Geometry (in Angstrom), charge = 0, multiplicity = 3:

       Center              X                  Y                   Z               Mass
    ------------   -----------------  -----------------  -----------------  -----------------
         O            0.000000000000     0.000000000000    -1.632908056819    15.994914619570
         H            0.000000000000    -0.756136820032    -1.037073650819     1.007825032230
         H           -0.000000000000     0.756136820032    -1.037073650819     1.007825032230
         O            0.000000000000     0.000000000000     1.763598193081    15.994914619570

  Charge       = 0
  Multiplicity = 3
  Basis Set: AUG-CC-PVTZ
    Blend: AUG-CC-PVTZ

    Orbital Energies [Eh]
    ---------------------

    Alpha Occupied:

       1A1   -20.729118     2A1   -20.562953     3A1    -1.438143
       4A1    -1.346158     1B2    -0.729561     1B1    -0.729150
       2B2    -0.707728     5A1    -0.632628     6A1    -0.579354
       2B1    -0.505065

    Alpha Virtual:

       7A1     0.035522     3B2     0.048528     3B1     0.132051
       8A1     0.134546     9A1     0.148370     4B2     0.158165
       4B1     0.181502     5B2     0.184930    10A1     0.189383
      11A1     0.251335     6B2     0.258031     1A2     0.265950
      12A1     0.273549     5B1     0.320350    13A1     0.368846
       7B2     0.382587    14A1     0.453768     8B2     0.471848
       2A2     0.609211     9B2     0.617132    15A1     0.618901
      16A1     0.620380     6B1     0.641074    17A1     0.717459
       3A2     0.730966    10B2     0.736620     7B1     0.743391
      18A1     0.801020    19A1     0.839228     8B1     0.839906
      11B2     0.853421     9B1     0.915796    20A1     0.930191
       4A2     0.934663    12B2     0.941714    21A1     0.958782
      10B1     0.963468    13B2     0.965756    22A1     1.048722
      14B2     1.054209    11B1     1.125441     5A2     1.185779
      23A1     1.186552    15B2     1.260549    24A1     1.264122
      16B2     1.275472    25A1     1.350685     6A2     1.511067
      12B1     1.591548    26A1     1.640594    17B2     1.828486
      27A1     1.829338    18B2     1.971539    13B1     1.978456
      19B2     1.990711    28A1     2.005286     7A2     2.011735
      14B1     2.026798    29A1     2.036861     8A2     2.041260
      20B2     2.083554    30A1     2.086694    15B1     2.121998
      31A1     2.149211    21B2     2.266622    16B1     2.280291
       9A2     2.330080    32A1     2.344691    33A1     2.403529
      34A1     2.487579    22B2     2.494075    17B1     2.508625
      35A1     2.575617    23B2     2.691020    18B1     2.719494
      36A1     2.818599    10A2     2.888384    24B2     2.905513
      25B2     3.665201    37A1     3.752673    11A2     4.030048
      19B1     4.050953    26B2     4.086677    20B1     4.101346
      38A1     4.153728    27B2     4.275540    21B1     4.284986
      39A1     4.371895    12A2     4.382957    40A1     4.411047
      22B1     4.415726    28B2     4.528325    41A1     4.747838
      29B2     4.848678    13A2     5.147540    30B2     5.160120
      31B2     5.251518    42A1     5.365961    23B1     5.523980
      43A1     5.676349    44A1     6.196624    24B1     6.315008
      32B2     6.315938    14A2     6.370898    45A1     6.376619
      25B1     6.403026    33B2     6.453814    46A1     6.483012
      34B2     6.529599    26B1     6.739273    15A2     6.819394
      47A1     6.820851    48A1     6.926169    27B1     6.928744
      35B2     6.959130    49A1     7.033844    28B1     7.135279
      29B1     7.259752    16A2     7.315426    36B2     7.346214
      50A1     7.357248    17A2     7.358442    51A1     7.546293
      52A1     7.900138    37B2     7.932579    53A1     8.542996
      38B2     8.806352    54A1    15.699782

    Beta Occupied:

       1A1   -20.650558     2A1   -20.562995     3A1    -1.346347
       4A1    -1.095862     1B2    -0.707881     5A1    -0.583901
       6A1    -0.538505     1B1    -0.505054

    Beta Virtual:

       2B2     0.035231     7A1     0.036650     2B1     0.049780
       3B2     0.069604     8A1     0.140692     9A1     0.150903
       3B1     0.160522     4B2     0.180735    10A1     0.189706
       5B2     0.222278     4B1     0.225448    11A1     0.260345
       6B2     0.263317     1A2     0.266283    12A1     0.275121
       5B1     0.321041    13A1     0.372240     7B2     0.387866
      14A1     0.454940     8B2     0.472364     9B2     0.619504
      15A1     0.621523     2A2     0.641392    16A1     0.651960
       6B1     0.653008    17A1     0.718760     3A2     0.732377
       7B1     0.745563    10B2     0.748111    18A1     0.810571
      19A1     0.851005     8B1     0.912411     9B1     0.931076
      20A1     0.935683     4A2     0.936166    11B2     0.940365
      12B2     0.945027    21A1     0.959742    13B2     1.011410
      10B1     1.026063    22A1     1.049347    14B2     1.057161
      11B1     1.131029     5A2     1.186510    23A1     1.190599
      15B2     1.271396    16B2     1.281625    24A1     1.285582
      25A1     1.405104     6A2     1.511190    12B1     1.591665
      26A1     1.653704    17B2     1.829704    27A1     1.830557
      18B2     1.979187    13B1     2.016520    19B2     2.021918
      28A1     2.030381     7A2     2.043186    14B1     2.047420
      29A1     2.099333    20B2     2.128497    30A1     2.159580
       8A2     2.182649    15B1     2.190330    31A1     2.197223
      16B1     2.285002    21B2     2.311301     9A2     2.333206
      32A1     2.364166    33A1     2.414982    34A1     2.491943
      22B2     2.499010    17B1     2.513346    35A1     2.578309
      23B2     2.691197    18B1     2.719587    36A1     2.818951
      10A2     2.888409    24B2     2.907537    25B2     3.665244
      37A1     3.752790    11A2     4.030141    19B1     4.100478
      38A1     4.168324    20B1     4.223914    26B2     4.241526
      21B1     4.285017    27B2     4.290709    12A2     4.383008
      39A1     4.391527    22B1     4.415952    40A1     4.424343
      28B2     4.528582    41A1     4.748027    29B2     4.848794
      13A2     5.147560    30B2     5.160123    31B2     5.251547
      42A1     5.366412    23B1     5.523984    43A1     5.676690
      44A1     6.198500    24B1     6.423846    32B2     6.424625
      14A2     6.447544    45A1     6.451494    25B1     6.458207
      33B2     6.497345    46A1     6.531688    34B2     6.542705
      26B1     6.745814    47A1     6.926316    15A2     7.008382
      48A1     7.010314    27B1     7.035967    35B2     7.068166
      49A1     7.114508    28B1     7.135655    29B1     7.259708
      16A2     7.315464    36B2     7.348186    50A1     7.358042
      17A2     7.358510    51A1     7.547120    52A1     7.900361
      37B2     7.932561    53A1     8.627837    38B2     8.806286
      54A1    15.699776

    Final Occupation by Irrep:
             A1    A2    B1    B2
    DOCC [     6,    0,    1,    1 ]
    SOCC [     0,    0,    1,    1 ]

  @UHF Final Energy:  -150.87346678552933

   => Energetics <=

    Nuclear Repulsion Energy =             22.0348195378858129
    One-Electron Energy =                -251.8656131906053588
    Two-Electron Energy =                  78.9573268671902042
    Total Energy =                       -150.8734667855293310

  UHF NO Occupations:
  HONO-2 :    6 A1 1.9970750
  HONO-1 :    2 B1 1.0000000
  HONO-0 :    2 B2 1.0000000
  LUNO+0 :    7 A1 0.0029250
  LUNO+1 :    8 A1 0.0016826
  LUNO+2 :    9 A1 0.0000024
  LUNO+3 :   10 A1 0.0000005

Computation Completed

Properties will be evaluated at   0.000000,   0.000000,   0.000000 [a0]

Properties computed using the SCF density matrix

  Nuclear Dipole Moment: [e a0]
     X:     0.0000      Y:     0.0000      Z:    -1.9438

  Electronic Dipole Moment: [e a0]
     X:     0.0000      Y:     0.0000      Z:     2.7772

  Dipole Moment: [e a0]
     X:     0.0000      Y:     0.0000      Z:     0.8333     Total:     0.8333

  Dipole Moment: [D]
     X:     0.0000      Y:     0.0000      Z:     2.1181     Total:     2.1181

*** tstop() called on c2-18.compute.lan at Wed Mar 10 09:41:58 2021
Module time:
	user time   =      37.42 seconds =       0.62 minutes
	system time =       1.79 seconds =       0.03 minutes
	total time  =          4 seconds =       0.07 minutes
Total time:
	user time   =      37.42 seconds =       0.62 minutes
	system time =       1.79 seconds =       0.03 minutes
	total time  =          4 seconds =       0.07 minutes
 MINTS: Wrapper to libmints.
   by Justin Turney

   Calculation information:
      Number of threads:                12
      Number of atoms:                   4
      Number of AO shells:              46
      Number of SO shells:              37
      Number of primitives:             82
      Number of atomic orbitals:       160
      Number of basis functions:       138

      Number of irreps:                  4
      Integral cutoff                 0.00e+00
      Number of functions per irrep: [  54   17   29   38 ]

 OEINTS: Overlap, kinetic, potential, dipole, and quadrupole integrals
         stored in file 35.

      Computing two-electron integrals...done
      Computed 11337125 non-zero two-electron integrals.
        Stored in file 33.

*** tstart() called on c2-18.compute.lan
*** at Wed Mar 10 09:42:01 2021

	Wfn Parameters:
	--------------------
	Wavefunction         = CCSD_T
	Number of irreps     = 4
	Number of MOs        = 138
	Number of active MOs = 136
	AO-Basis             = NONE
	Semicanonical        = false
	Reference            = UHF
	Print Level          = 1

	IRREP	# MOs	# FZDC	# DOCC	# SOCC	# VIRT	# FZVR
	-----	-----	------	------	------	------	------
	 A1	   54	    2	    4	    0	    48	    0
	 A2	   17	    0	    0	    0	    17	    0
	 B1	   29	    0	    1	    1	    27	    0
	 B2	   38	    0	    1	    1	    36	    0
	Transforming integrals...
	IWL integrals will be deleted.
	(OO|OO)...
	Presorting SO-basis two-electron integrals.
	Sorting File: SO Ints (nn|nn) nbuckets = 1
	Transforming the one-electron integrals and constructing Fock matrices
	Starting AA/AB first half-transformation.
	Sorting AA/AB half-transformed integrals.
	Starting BB first half-transformation.
	Sorting BB half-transformed integrals.
	First half integral transformation complete.
	Starting AA second half-transformation.
	Starting AB second half-transformation.
	Starting BB second half-transformation.
	Two-electron integral transformation complete.
	(OO|OV)...
	Starting AA second half-transformation.
	Starting AB second half-transformation.
	Starting BB second half-transformation.
	Two-electron integral transformation complete.
	(OO|VV)...
	Starting AA second half-transformation.
	Starting AB second half-transformation.
	Starting BB second half-transformation.
	Two-electron integral transformation complete.
	(OV|OO)...
	Starting AA/AB first half-transformation.
	Sorting AA/AB half-transformed integrals.
	Starting BB first half-transformation.
	Sorting BB half-transformed integrals.
	First half integral transformation complete.
	Starting AA second half-transformation.
	Starting AB second half-transformation.
	Starting BB second half-transformation.
	Two-electron integral transformation complete.
	(OV|OV)...
	Starting AA second half-transformation.
	Starting AB second half-transformation.
	Starting BB second half-transformation.
	Two-electron integral transformation complete.
	(OV|VV)...
	Starting AA second half-transformation.
	Starting AB second half-transformation.
	Starting BB second half-transformation.
	Two-electron integral transformation complete.
	(VV|OO)...
	Starting AA/AB first half-transformation.
	Sorting AA/AB half-transformed integrals.
	Starting BB first half-transformation.
	Sorting BB half-transformed integrals.
	First half integral transformation complete.
	Starting AA second half-transformation.
	Starting AB second half-transformation.
	Starting BB second half-transformation.
	Two-electron integral transformation complete.
	(VV|OV)...
	Starting AA second half-transformation.
	Starting AB second half-transformation.
	Starting BB second half-transformation.
	Two-electron integral transformation complete.
	(VV|VV)...
	Starting AA second half-transformation.
	Starting AB second half-transformation.
	Starting BB second half-transformation.
	Two-electron integral transformation complete.
	Frozen core energy     =   -125.50184043566556

	Size of irrep 0 of <AB|CD> integrals:      5.040 (MW) /     40.320 (MB)
	Size of irrep 1 of <AB|CD> integrals:      3.197 (MW) /     25.576 (MB)
	Size of irrep 2 of <AB|CD> integrals:      3.640 (MW) /     29.124 (MB)
	Size of irrep 3 of <AB|CD> integrals:      4.783 (MW) /     38.264 (MB)
	Total:                                    16.660 (MW) /    133.283 (MB)

	Size of irrep 0 of <ab|cd> integrals:      5.327 (MW) /     42.615 (MB)
	Size of irrep 1 of <ab|cd> integrals:      3.430 (MW) /     27.439 (MB)
	Size of irrep 2 of <ab|cd> integrals:      3.893 (MW) /     31.142 (MB)
	Size of irrep 3 of <ab|cd> integrals:      5.072 (MW) /     40.572 (MB)
	Total:                                    17.721 (MW) /    141.768 (MB)

	Size of irrep 0 of <Ab|Cd> integrals:     21.912 (MW) /    175.294 (MB)
	Size of irrep 1 of <Ab|Cd> integrals:     13.242 (MW) /    105.939 (MB)
	Size of irrep 2 of <Ab|Cd> integrals:     15.062 (MW) /    120.497 (MB)
	Size of irrep 3 of <Ab|Cd> integrals:     19.705 (MW) /    157.638 (MB)
	Total:                                    69.921 (MW) /    559.368 (MB)

	Size of irrep 0 of <IA|BC> integrals:      1.469 (MW) /     11.748 (MB)
	Size of irrep 1 of <IA|BC> integrals:      0.694 (MW) /      5.550 (MB)
	Size of irrep 2 of <IA|BC> integrals:      0.908 (MW) /      7.266 (MB)
	Size of irrep 3 of <IA|BC> integrals:      1.198 (MW) /      9.588 (MB)
	Total:                                     4.269 (MW) /     34.152 (MB)

	Size of irrep 0 of <ia|bc> integrals:      1.220 (MW) /      9.758 (MB)
	Size of irrep 1 of <ia|bc> integrals:      0.493 (MW) /      3.941 (MB)
	Size of irrep 2 of <ia|bc> integrals:      0.698 (MW) /      5.588 (MB)
	Size of irrep 3 of <ia|bc> integrals:      0.959 (MW) /      7.675 (MB)
	Total:                                     3.370 (MW) /     26.961 (MB)

	Size of irrep 0 of <Ia|Bc> integrals:      1.507 (MW) /     12.058 (MB)
	Size of irrep 1 of <Ia|Bc> integrals:      0.721 (MW) /      5.764 (MB)
	Size of irrep 2 of <Ia|Bc> integrals:      0.939 (MW) /      7.514 (MB)
	Size of irrep 3 of <Ia|Bc> integrals:      1.234 (MW) /      9.872 (MB)
	Total:                                     4.401 (MW) /     35.208 (MB)

	Size of irrep 0 of <iA|bC> integrals:      1.194 (MW) /      9.549 (MB)
	Size of irrep 1 of <iA|bC> integrals:      0.477 (MW) /      3.814 (MB)
	Size of irrep 2 of <iA|bC> integrals:      0.671 (MW) /      5.371 (MB)
	Size of irrep 3 of <iA|bC> integrals:      0.928 (MW) /      7.422 (MB)
	Total:                                     3.270 (MW) /     26.156 (MB)

	Size of irrep 0 of tIjAb amplitudes:       0.094 (MW) /      0.749 (MB)
	Size of irrep 1 of tIjAb amplitudes:       0.015 (MW) /      0.116 (MB)
	Size of irrep 2 of tIjAb amplitudes:       0.047 (MW) /      0.373 (MB)
	Size of irrep 3 of tIjAb amplitudes:       0.053 (MW) /      0.426 (MB)
	Total:                                     0.208 (MW) /      1.664 (MB)

	Nuclear Rep. energy          =     22.03481953788581
	SCF energy                   =   -150.87346678552933
	One-electron energy          =    -83.36755542139585
	Two-electron (AA) energy     =      9.96758940169865
	Two-electron (BB) energy     =      5.30361568422869
	Two-electron (AB) energy     =     20.68990444771745
	Two-electron energy          =     35.96110953364479
	Reference energy             =   -150.87346678553081

*** tstop() called on c2-18.compute.lan at Wed Mar 10 09:42:37 2021
Module time:
	user time   =     292.30 seconds =       4.87 minutes
	system time =      17.92 seconds =       0.30 minutes
	total time  =         36 seconds =       0.60 minutes
Total time:
	user time   =     335.68 seconds =       5.59 minutes
	system time =      20.31 seconds =       0.34 minutes
	total time  =         43 seconds =       0.72 minutes
            **************************
            *                        *
            *        CCENERGY        *
            *                        *
            **************************

    Nuclear Rep. energy (wfn)     =   22.034819537885813
    SCF energy          (wfn)     = -150.873466785529331
    Reference energy    (file100) = -150.873466785530809

    Input parameters:
    -----------------
    Wave function   =     CCSD_T
    Reference wfn   =     UHF
    Brueckner       =     No
    Memory (Mbytes) =     4000.0
    Maxiter         =     50
    R_Convergence   =     1.0e-10
    E_Convergence   =     1.0e-10
    Restart         =     Yes
    DIIS            =     Yes
    AO Basis        =     NONE
    ABCD            =     NEW
    Cache Level     =     2
    Cache Type      =     LRU
    Print Level     =     1
    Num. of threads =     12
    # Amps to Print =     10
    Print MP2 Amps? =     No
    Analyze T2 Amps =     No
    Print Pair Ener =     No
    Local CC        =     No
    SCS-MP2         =     False
    SCSN-MP2        =     False
    SCS-CCSD        =     False

MP2 correlation energy -0.4158331828095633
                Solving CC Amplitude Equations
                ------------------------------
  Iter             Energy              RMS        T1Diag      D1Diag    New D1Diag    D2Diag
  ----     ---------------------    ---------   ----------  ----------  ----------   --------
     0        -0.415833182809563    0.000e+00    0.000000    0.000000    0.000000    0.000000
     1        -0.426668464729553    5.646e-02    0.010379    0.000000    0.000000    0.000000
     2        -0.434770138058759    1.681e-02    0.010881    0.000000    0.000000    0.000000
     3        -0.436872583460998    8.427e-03    0.012702    0.000000    0.000000    0.000000
     4        -0.436748576616546    2.494e-03    0.013048    0.000000    0.000000    0.000000
     5        -0.436736208957556    1.263e-03    0.013191    0.000000    0.000000    0.000000
     6        -0.436761688649009    4.990e-04    0.013206    0.000000    0.000000    0.000000
     7        -0.436765899736888    2.278e-04    0.013196    0.000000    0.000000    0.000000
     8        -0.436766634185429    6.859e-05    0.013190    0.000000    0.000000    0.000000
     9        -0.436767865287824    2.866e-05    0.013190    0.000000    0.000000    0.000000
    10        -0.436766672337111    1.104e-05    0.013190    0.000000    0.000000    0.000000
    11        -0.436766780972329    5.636e-06    0.013190    0.000000    0.000000    0.000000
    12        -0.436766740725605    2.786e-06    0.013190    0.000000    0.000000    0.000000
    13        -0.436766736483421    1.479e-06    0.013190    0.000000    0.000000    0.000000
    14        -0.436766766262372    6.732e-07    0.013190    0.000000    0.000000    0.000000
    15        -0.436766765058550    1.751e-07    0.013190    0.000000    0.000000    0.000000
    16        -0.436766764946632    1.071e-07    0.013190    0.000000    0.000000    0.000000
    17        -0.436766765782760    3.020e-08    0.013190    0.000000    0.000000    0.000000
    18        -0.436766765371356    1.359e-08    0.013190    0.000000    0.000000    0.000000

      * MP2 total energy                      = -151.289299968340373
      * CCSD total energy                     = -151.310233550652384
      * CCSD(T) total energy                     = -151.322467777351449
*** Psi4 exiting successfully. Buy a developer a beer!
