                               Psi4 1.3.2 release

  ==> Input File <==

--------------------------------------------------------------------------
memory 4 GB

molecule  {
0 3
O    0.000000000000    0.000000000000   -1.442447199126
H    0.000000000000   -0.729955010400   -0.826570644600
H   -0.000000000000    0.729955010400   -0.826570644600
O    0.000000000000    0.000000000000    1.546610129200
}
set {
basis aug-cc-pvtz
reference uhf
e_convergence 10
scf_type pk
freeze_core true
}

set ccenergy {
e_convergence 10
r_convergence 10
}

e = energy('ccsd(t)')

print_out('Stephenergy {}'.format(e))

--------------------------------------------------------------------------

    Molecular point group: c2v

    Geometry (in Angstrom), charge = 0, multiplicity = 3:

       Center              X                  Y                   Z               Mass
    ------------   -----------------  -----------------  -----------------  -----------------
         O           -0.000000000000     0.000000000000    -1.442447199126    15.994914619570
         H            0.000000000000    -0.729955010400    -0.826570644600     1.007825032230
         H           -0.000000000000     0.729955010400    -0.826570644600     1.007825032230
         O           -0.000000000000     0.000000000000     1.546610129200    15.994914619570

  Charge       = 0
  Multiplicity = 3
  Basis Set: AUG-CC-PVTZ
    Blend: AUG-CC-PVTZ

    Orbital Energies [Eh]
    ---------------------

    Alpha Occupied:

       1A1   -20.734456     2A1   -20.559440     3A1    -1.444759
       4A1    -1.349949     1B2    -0.736296     1B1    -0.735120
       2B2    -0.700821     5A1    -0.644242     6A1    -0.581218
       2B1    -0.503766

    Alpha Virtual:

       7A1     0.036243     3B2     0.048839     8A1     0.130073
       3B1     0.130438     9A1     0.153483     4B2     0.159315
       4B1     0.186306     5B2     0.187009    10A1     0.192427
      11A1     0.265355     6B2     0.265708     1A2     0.266397
      12A1     0.276303     5B1     0.326993     7B2     0.388301
      13A1     0.388588    14A1     0.458138     8B2     0.476663
       2A2     0.614076    15A1     0.631439     9B2     0.631687
      16A1     0.652685     6B1     0.655481    17A1     0.717624
       3A2     0.733405    10B2     0.752608     7B1     0.768435
      18A1     0.775435     8B1     0.825366    11B2     0.851882
      19A1     0.866678     9B1     0.921149    12B2     0.945879
       4A2     0.954274    20A1     0.964777    10B1     1.004114
      21A1     1.007755    13B2     1.022253    14B2     1.072146
      22A1     1.072360    11B1     1.178788    23A1     1.200675
       5A2     1.203328    24A1     1.222631    15B2     1.264462
      16B2     1.357710    25A1     1.457275     6A2     1.513962
      12B1     1.585806    26A1     1.774491    27A1     1.836784
      17B2     1.869800    18B2     1.960528    13B1     1.975136
      28A1     2.012076     7A2     2.019974    19B2     2.024287
      14B1     2.045193    29A1     2.049611     8A2     2.091249
      30A1     2.104179    20B2     2.126847    15B1     2.164761
      31A1     2.219838    16B1     2.328010    21B2     2.346841
       9A2     2.352231    32A1     2.365191    33A1     2.428760
      34A1     2.506676    22B2     2.540036    17B1     2.574840
      35A1     2.634515    23B2     2.697641    18B1     2.728646
      24B2     2.884549    36A1     2.887043    10A2     2.897706
      25B2     3.700806    37A1     3.735424    19B1     4.056155
      11A2     4.071297    20B1     4.127913    26B2     4.133920
      38A1     4.199678    21B1     4.240137    27B2     4.306290
      39A1     4.315457    12A2     4.394076    22B1     4.432825
      40A1     4.535093    28B2     4.578158    41A1     4.791948
      29B2     4.907720    13A2     5.162686    30B2     5.217774
      31B2     5.258070    42A1     5.402506    23B1     5.565636
      43A1     5.647717    44A1     6.249064    24B1     6.311336
      32B2     6.314991    14A2     6.395623    45A1     6.410920
      25B1     6.433514    33B2     6.497533    46A1     6.526610
      34B2     6.576651    26B1     6.787800    15A2     6.821676
      47A1     6.824476    27B1     6.942740    35B2     6.984249
      48A1     6.998574    49A1     7.049547    28B1     7.151983
      29B1     7.278204    36B2     7.329021    16A2     7.339226
      17A2     7.363853    50A1     7.416445    51A1     7.584428
      52A1     7.880204    37B2     7.996671    38B2     8.878951
      53A1     8.992132    54A1    15.992152

    Beta Occupied:

       1A1   -20.656009     2A1   -20.559520     3A1    -1.350554
       4A1    -1.102760     1B2    -0.701401     5A1    -0.597132
       6A1    -0.539618     1B1    -0.503629

    Beta Virtual:

       2B2     0.031909     7A1     0.037567     2B1     0.045886
       3B2     0.069018     8A1     0.135290     9A1     0.156121
       3B1     0.161018     4B2     0.179103    10A1     0.193016
       4B1     0.225468     5B2     0.227970     6B2     0.267105
       1A2     0.267120    11A1     0.271782    12A1     0.281741
       5B1     0.329705    13A1     0.392500     7B2     0.398142
      14A1     0.460105     8B2     0.477076     9B2     0.632675
       2A2     0.646092    15A1     0.653840     6B1     0.665372
      16A1     0.665841    17A1     0.718607     3A2     0.734522
      10B2     0.768118     7B1     0.773943    18A1     0.789984
      19A1     0.870438     8B1     0.907811    11B2     0.939040
       9B1     0.941863     4A2     0.957123    12B2     0.958808
      20A1     0.966761    21A1     1.013141    10B1     1.042145
      13B2     1.042833    22A1     1.075731    14B2     1.086661
      11B1     1.193558     5A2     1.204501    23A1     1.220021
      24A1     1.250568    15B2     1.264653    16B2     1.376025
      25A1     1.473390     6A2     1.514369    12B1     1.586340
      26A1     1.795856    27A1     1.845006    17B2     1.871367
      18B2     1.975481    13B1     2.011963    28A1     2.042947
      19B2     2.046210    14B1     2.076581     7A2     2.090709
      29A1     2.107304    20B2     2.188591     8A2     2.189617
      30A1     2.195608    15B1     2.216419    31A1     2.261150
      16B1     2.339483     9A2     2.358370    21B2     2.374017
      32A1     2.374065    33A1     2.439493    34A1     2.509270
      22B2     2.548261    17B1     2.579494    35A1     2.640517
      23B2     2.699054    18B1     2.728862    24B2     2.885523
      36A1     2.888002    10A2     2.897796    25B2     3.701971
      37A1     3.736504    11A2     4.071442    19B1     4.120031
      38A1     4.200791    20B1     4.220637    21B1     4.254376
      26B2     4.297515    27B2     4.307300    39A1     4.334189
      12A2     4.394147    22B1     4.433844    40A1     4.562529
      28B2     4.580604    41A1     4.793004    29B2     4.908611
      13A2     5.162752    30B2     5.217809    31B2     5.258368
      42A1     5.402974    23B1     5.565662    43A1     5.648037
      44A1     6.256396    24B1     6.419807    32B2     6.422989
      14A2     6.472010    45A1     6.482810    25B1     6.487417
      33B2     6.505171    46A1     6.570938    34B2     6.626013
      26B1     6.794928    47A1     6.997831    15A2     7.009889
      48A1     7.022651    27B1     7.047885    35B2     7.092545
      49A1     7.122484    28B1     7.153699    29B1     7.278385
      36B2     7.329330    16A2     7.339489    17A2     7.363928
      50A1     7.417276    51A1     7.586026    52A1     7.880458
      37B2     7.996709    38B2     8.878787    53A1     9.071339
      54A1    15.992170

    Final Occupation by Irrep:
             A1    A2    B1    B2
    DOCC [     6,    0,    1,    1 ]
    SOCC [     0,    0,    1,    1 ]

  @UHF Final Energy:  -150.87140315338490

   => Energetics <=

    Nuclear Repulsion Energy =             23.9682115189455587
    One-Electron Energy =                -255.6785382098190098
    Two-Electron Energy =                  80.8389235374885402
    Total Energy =                       -150.8714031533849038

  UHF NO Occupations:
  HONO-2 :    6 A1 1.9970871
  HONO-1 :    2 B1 1.0000000
  HONO-0 :    2 B2 1.0000000
  LUNO+0 :    7 A1 0.0029129
  LUNO+1 :    8 A1 0.0015932
  LUNO+2 :    9 A1 0.0000024
  LUNO+3 :   10 A1 0.0000023

Computation Completed

Properties will be evaluated at   0.000000,   0.000000,   0.000000 [a0]

Properties computed using the SCF density matrix

  Nuclear Dipole Moment: [e a0]
     X:    -0.0000      Y:     0.0000      Z:    -1.5493

  Electronic Dipole Moment: [e a0]
     X:     0.0000      Y:     0.0000      Z:     2.4281

  Dipole Moment: [e a0]
     X:    -0.0000      Y:     0.0000      Z:     0.8788     Total:     0.8788

  Dipole Moment: [D]
     X:    -0.0000      Y:     0.0000      Z:     2.2336     Total:     2.2336

*** tstop() called on c5-7.compute.lan at Wed Mar 10 09:23:57 2021
Module time:
	user time   =      50.07 seconds =       0.83 minutes
	system time =       1.79 seconds =       0.03 minutes
	total time  =          7 seconds =       0.12 minutes
Total time:
	user time   =      50.07 seconds =       0.83 minutes
	system time =       1.79 seconds =       0.03 minutes
	total time  =          7 seconds =       0.12 minutes
 MINTS: Wrapper to libmints.
   by Justin Turney

   Calculation information:
      Number of threads:                12
      Number of atoms:                   4
      Number of AO shells:              46
      Number of SO shells:              37
      Number of primitives:             82
      Number of atomic orbitals:       160
      Number of basis functions:       138

      Number of irreps:                  4
      Integral cutoff                 0.00e+00
      Number of functions per irrep: [  54   17   29   38 ]

 OEINTS: Overlap, kinetic, potential, dipole, and quadrupole integrals
         stored in file 35.

      Computing two-electron integrals...done
      Computed 11524594 non-zero two-electron integrals.
        Stored in file 33.

*** tstart() called on c5-7.compute.lan
*** at Wed Mar 10 09:24:00 2021

	Wfn Parameters:
	--------------------
	Wavefunction         = CCSD_T
	Number of irreps     = 4
	Number of MOs        = 138
	Number of active MOs = 136
	AO-Basis             = NONE
	Semicanonical        = false
	Reference            = UHF
	Print Level          = 1

	IRREP	# MOs	# FZDC	# DOCC	# SOCC	# VIRT	# FZVR
	-----	-----	------	------	------	------	------
	 A1	   54	    2	    4	    0	    48	    0
	 A2	   17	    0	    0	    0	    17	    0
	 B1	   29	    0	    1	    1	    27	    0
	 B2	   38	    0	    1	    1	    36	    0
	Transforming integrals...
	IWL integrals will be deleted.
	(OO|OO)...
	Presorting SO-basis two-electron integrals.
	Sorting File: SO Ints (nn|nn) nbuckets = 1
	Transforming the one-electron integrals and constructing Fock matrices
	Starting AA/AB first half-transformation.
	Sorting AA/AB half-transformed integrals.
	Starting BB first half-transformation.
	Sorting BB half-transformed integrals.
	First half integral transformation complete.
	Starting AA second half-transformation.
	Starting AB second half-transformation.
	Starting BB second half-transformation.
	Two-electron integral transformation complete.
	(OO|OV)...
	Starting AA second half-transformation.
	Starting AB second half-transformation.
	Starting BB second half-transformation.
	Two-electron integral transformation complete.
	(OO|VV)...
	Starting AA second half-transformation.
	Starting AB second half-transformation.
	Starting BB second half-transformation.
	Two-electron integral transformation complete.
	(OV|OO)...
	Starting AA/AB first half-transformation.
	Sorting AA/AB half-transformed integrals.
	Starting BB first half-transformation.
	Sorting BB half-transformed integrals.
	First half integral transformation complete.
	Starting AA second half-transformation.
	Starting AB second half-transformation.
	Starting BB second half-transformation.
	Two-electron integral transformation complete.
	(OV|OV)...
	Starting AA second half-transformation.
	Starting AB second half-transformation.
	Starting BB second half-transformation.
	Two-electron integral transformation complete.
	(OV|VV)...
	Starting AA second half-transformation.
	Starting AB second half-transformation.
	Starting BB second half-transformation.
	Two-electron integral transformation complete.
	(VV|OO)...
	Starting AA/AB first half-transformation.
	Sorting AA/AB half-transformed integrals.
	Starting BB first half-transformation.
	Sorting BB half-transformed integrals.
	First half integral transformation complete.
	Starting AA second half-transformation.
	Starting AB second half-transformation.
	Starting BB second half-transformation.
	Two-electron integral transformation complete.
	(VV|OV)...
	Starting AA second half-transformation.
	Starting AB second half-transformation.
	Starting BB second half-transformation.
	Two-electron integral transformation complete.
	(VV|VV)...
	Starting AA second half-transformation.
	Starting AB second half-transformation.
	Starting BB second half-transformation.
	Two-electron integral transformation complete.
	Frozen core energy     =   -126.23693004351045

	Size of irrep 0 of <AB|CD> integrals:      5.040 (MW) /     40.320 (MB)
	Size of irrep 1 of <AB|CD> integrals:      3.197 (MW) /     25.576 (MB)
	Size of irrep 2 of <AB|CD> integrals:      3.640 (MW) /     29.124 (MB)
	Size of irrep 3 of <AB|CD> integrals:      4.783 (MW) /     38.264 (MB)
	Total:                                    16.660 (MW) /    133.283 (MB)

	Size of irrep 0 of <ab|cd> integrals:      5.327 (MW) /     42.615 (MB)
	Size of irrep 1 of <ab|cd> integrals:      3.430 (MW) /     27.439 (MB)
	Size of irrep 2 of <ab|cd> integrals:      3.893 (MW) /     31.142 (MB)
	Size of irrep 3 of <ab|cd> integrals:      5.072 (MW) /     40.572 (MB)
	Total:                                    17.721 (MW) /    141.768 (MB)

	Size of irrep 0 of <Ab|Cd> integrals:     21.912 (MW) /    175.294 (MB)
	Size of irrep 1 of <Ab|Cd> integrals:     13.242 (MW) /    105.939 (MB)
	Size of irrep 2 of <Ab|Cd> integrals:     15.062 (MW) /    120.497 (MB)
	Size of irrep 3 of <Ab|Cd> integrals:     19.705 (MW) /    157.638 (MB)
	Total:                                    69.921 (MW) /    559.368 (MB)

	Size of irrep 0 of <IA|BC> integrals:      1.469 (MW) /     11.748 (MB)
	Size of irrep 1 of <IA|BC> integrals:      0.694 (MW) /      5.550 (MB)
	Size of irrep 2 of <IA|BC> integrals:      0.908 (MW) /      7.266 (MB)
	Size of irrep 3 of <IA|BC> integrals:      1.198 (MW) /      9.588 (MB)
	Total:                                     4.269 (MW) /     34.152 (MB)

	Size of irrep 0 of <ia|bc> integrals:      1.220 (MW) /      9.758 (MB)
	Size of irrep 1 of <ia|bc> integrals:      0.493 (MW) /      3.941 (MB)
	Size of irrep 2 of <ia|bc> integrals:      0.698 (MW) /      5.588 (MB)
	Size of irrep 3 of <ia|bc> integrals:      0.959 (MW) /      7.675 (MB)
	Total:                                     3.370 (MW) /     26.961 (MB)

	Size of irrep 0 of <Ia|Bc> integrals:      1.507 (MW) /     12.058 (MB)
	Size of irrep 1 of <Ia|Bc> integrals:      0.721 (MW) /      5.764 (MB)
	Size of irrep 2 of <Ia|Bc> integrals:      0.939 (MW) /      7.514 (MB)
	Size of irrep 3 of <Ia|Bc> integrals:      1.234 (MW) /      9.872 (MB)
	Total:                                     4.401 (MW) /     35.208 (MB)

	Size of irrep 0 of <iA|bC> integrals:      1.194 (MW) /      9.549 (MB)
	Size of irrep 1 of <iA|bC> integrals:      0.477 (MW) /      3.814 (MB)
	Size of irrep 2 of <iA|bC> integrals:      0.671 (MW) /      5.371 (MB)
	Size of irrep 3 of <iA|bC> integrals:      0.928 (MW) /      7.422 (MB)
	Total:                                     3.270 (MW) /     26.156 (MB)

	Size of irrep 0 of tIjAb amplitudes:       0.094 (MW) /      0.749 (MB)
	Size of irrep 1 of tIjAb amplitudes:       0.015 (MW) /      0.116 (MB)
	Size of irrep 2 of tIjAb amplitudes:       0.047 (MW) /      0.373 (MB)
	Size of irrep 3 of tIjAb amplitudes:       0.053 (MW) /      0.426 (MB)
	Total:                                     0.208 (MW) /      1.664 (MB)

	Nuclear Rep. energy          =     23.96821151894556
	SCF energy                   =   -150.87140315338490
	One-electron energy          =    -85.71410423661003
	Two-electron (AA) energy     =     10.33855204152571
	Two-electron (BB) energy     =      5.50060858221417
	Two-electron (AB) energy     =     21.27225898404701
	Two-electron energy          =     37.11141960778690
	Reference energy             =   -150.87140315338803

*** tstop() called on c5-7.compute.lan at Wed Mar 10 09:24:24 2021
Module time:
	user time   =      66.59 seconds =       1.11 minutes
	system time =      12.07 seconds =       0.20 minutes
	total time  =         24 seconds =       0.40 minutes
Total time:
	user time   =     122.01 seconds =       2.03 minutes
	system time =      14.27 seconds =       0.24 minutes
	total time  =         34 seconds =       0.57 minutes
            **************************
            *                        *
            *        CCENERGY        *
            *                        *
            **************************

    Nuclear Rep. energy (wfn)     =   23.968211518945559
    SCF energy          (wfn)     = -150.871403153384904
    Reference energy    (file100) = -150.871403153388030

    Input parameters:
    -----------------
    Wave function   =     CCSD_T
    Reference wfn   =     UHF
    Brueckner       =     No
    Memory (Mbytes) =     4000.0
    Maxiter         =     50
    R_Convergence   =     1.0e-10
    E_Convergence   =     1.0e-10
    Restart         =     Yes
    DIIS            =     Yes
    AO Basis        =     NONE
    ABCD            =     NEW
    Cache Level     =     2
    Cache Type      =     LRU
    Print Level     =     1
    Num. of threads =     12
    # Amps to Print =     10
    Print MP2 Amps? =     No
    Analyze T2 Amps =     No
    Print Pair Ener =     No
    Local CC        =     No
    SCS-MP2         =     False
    SCSN-MP2        =     False
    SCS-CCSD        =     False

MP2 correlation energy -0.4163163465584220
                Solving CC Amplitude Equations
                ------------------------------
  Iter             Energy              RMS        T1Diag      D1Diag    New D1Diag    D2Diag
  ----     ---------------------    ---------   ----------  ----------  ----------   --------
     0        -0.416316346558422    0.000e+00    0.000000    0.000000    0.000000    0.000000
     1        -0.427265101382417    5.635e-02    0.010432    0.000000    0.000000    0.000000
     2        -0.435356386173428    1.670e-02    0.010996    0.000000    0.000000    0.000000
     3        -0.437417640502441    8.555e-03    0.012872    0.000000    0.000000    0.000000
     4        -0.437294683730243    2.538e-03    0.013260    0.000000    0.000000    0.000000
     5        -0.437275463260644    1.421e-03    0.013438    0.000000    0.000000    0.000000
     6        -0.437304940274688    5.531e-04    0.013481    0.000000    0.000000    0.000000
     7        -0.437310060626752    3.181e-04    0.013486    0.000000    0.000000    0.000000
     8        -0.437310394146522    1.114e-04    0.013486    0.000000    0.000000    0.000000
     9        -0.437311798618706    6.186e-05    0.013490    0.000000    0.000000    0.000000
    10        -0.437309814826602    3.071e-05    0.013492    0.000000    0.000000    0.000000
    11        -0.437310076798770    1.540e-05    0.013494    0.000000    0.000000    0.000000
    12        -0.437310034462055    5.902e-06    0.013495    0.000000    0.000000    0.000000
    13        -0.437310089140265    2.018e-06    0.013495    0.000000    0.000000    0.000000
    14        -0.437310168368366    8.237e-07    0.013495    0.000000    0.000000    0.000000
    15        -0.437310175608693    2.439e-07    0.013495    0.000000    0.000000    0.000000
    16        -0.437310176804516    1.268e-07    0.013495    0.000000    0.000000    0.000000
    17        -0.437310178109966    4.413e-08    0.013495    0.000000    0.000000    0.000000
    18        -0.437310177254989    2.137e-08    0.013495    0.000000    0.000000    0.000000

      * MP2 total energy                      = -151.287719499946462
      * CCSD total energy                     = -151.308713330493873
      * CCSD(T) total energy                     = -151.321022610903213
*** Psi4 exiting successfully. Buy a developer a beer!
