                               Psi4 1.3.2 release

  ==> Input File <==

--------------------------------------------------------------------------
memory 4 GB

molecule  {
0 3
O   -1.506400547086   -0.018463005014    0.000000000000
H   -0.545692666786    0.063290691586    0.000000000000
H   -1.823871843736    0.890165875471    0.000000000000
O    1.655704653172   -0.041613426669    0.000000000000
}
set {
basis aug-cc-pvtz
reference uhf
e_convergence 10
scf_type pk
freeze_core true
}

set ccenergy {
e_convergence 10
r_convergence 10
}

e = energy('ccsd(t)')

print_out('Stephenergy {}'.format(e))

--------------------------------------------------------------------------

    Molecular point group: cs

    Geometry (in Angstrom), charge = 0, multiplicity = 3:

       Center              X                  Y                   Z               Mass
    ------------   -----------------  -----------------  -----------------  -----------------
         O           -1.506400547086    -0.018463005014     0.000000000000    15.994914619570
         H           -0.545692666786     0.063290691586     0.000000000000     1.007825032230
         H           -1.823871843736     0.890165875471     0.000000000000     1.007825032230
         O            1.655704653172    -0.041613426669     0.000000000000    15.994914619570

  Charge       = 0
  Multiplicity = 3
  Basis Set: AUG-CC-PVTZ
    Blend: AUG-CC-PVTZ

    Orbital Energies [Eh]
    ---------------------

    Alpha Occupied:

       1Ap   -20.734676     2Ap   -20.558439     3Ap    -1.444061
       4Ap    -1.341901     5Ap    -0.734617     1App   -0.734396
       6Ap    -0.709315     7Ap    -0.636265     8Ap    -0.574170
       2App   -0.501331

    Alpha Virtual:

       9Ap     0.034461    10Ap     0.053382    11Ap     0.127536
       3App    0.132005    12Ap     0.148088    13Ap     0.160949
      14Ap     0.183697     4App    0.186768    15Ap     0.213534
      16Ap     0.242031    17Ap     0.268763     5App    0.284335
      18Ap     0.298244     6App    0.322743    19Ap     0.369885
      20Ap     0.398720    21Ap     0.460332    22Ap     0.563729
       7App    0.600721    23Ap     0.608579    24Ap     0.637356
      25Ap     0.671732    26Ap     0.713714     8App    0.714300
       9App    0.735182    10App    0.748244    27Ap     0.764727
      28Ap     0.807532    11App    0.825080    29Ap     0.843597
      30Ap     0.874114    12App    0.886667    31Ap     0.925248
      13App    0.944781    32Ap     0.945627    33Ap     0.953715
      14App    0.979495    34Ap     0.982951    35Ap     1.043795
      36Ap     1.128929    15App    1.168471    37Ap     1.169033
      38Ap     1.194283    39Ap     1.270885    16App    1.279506
      40Ap     1.325185    17App    1.528169    41Ap     1.570249
      18App    1.600409    42Ap     1.700726    43Ap     1.816408
      44Ap     1.833283    19App    1.976077    45Ap     1.976084
      46Ap     1.986229    20App    2.011908    47Ap     2.017316
      21App    2.050686    48Ap     2.062278    22App    2.125945
      49Ap     2.164141    50Ap     2.176657    23App    2.215411
      24App    2.298832    51Ap     2.315782    52Ap     2.329533
      53Ap     2.417055    25App    2.452692    54Ap     2.460950
      55Ap     2.522566    26App    2.526789    56Ap     2.636556
      57Ap     2.697522    27App    2.729326    58Ap     2.749980
      59Ap     2.859475    60Ap     2.937807    28App    2.946052
      61Ap     3.697932    62Ap     3.899981    29App    4.035878
      30App    4.060046    63Ap     4.074157    31App    4.176426
      64Ap     4.205714    65Ap     4.270586    32App    4.300107
      66Ap     4.391558    33App    4.392068    34App    4.436000
      67Ap     4.436759    68Ap     4.586923    69Ap     4.779820
      70Ap     4.962454    35App    5.152562    71Ap     5.173955
      72Ap     5.303063    73Ap     5.377854    36App    5.523033
      74Ap     5.690241    75Ap     6.192688    37App    6.310624
      76Ap     6.310655    38App    6.374615    77Ap     6.377417
      39App    6.525220    78Ap     6.526074    79Ap     6.562405
      80Ap     6.641566    40App    6.728530    81Ap     6.812663
      41App    6.818991    82Ap     6.915078    42App    6.935642
      83Ap     6.965976    84Ap     7.051191    43App    7.147563
      44App    7.273463    85Ap     7.321383    45App    7.324527
      86Ap     7.361397    46App    7.443488    87Ap     7.653878
      88Ap     7.944801    89Ap     7.963722    90Ap     8.804753
      91Ap     9.477977    92Ap    16.431509

    Beta Occupied:

       1Ap   -20.655889     2Ap   -20.558583     3Ap    -1.342533
       4Ap    -1.101612     5Ap    -0.708216     6Ap    -0.580484
       7Ap    -0.541924     1App   -0.501385

    Beta Virtual:

       8Ap     0.034337     9Ap     0.047443     2App    0.048059
      10Ap     0.056234    11Ap     0.144407    12Ap     0.151573
       3App    0.160792    13Ap     0.179105    14Ap     0.208902
      15Ap     0.221485     4App    0.226297    16Ap     0.251502
      17Ap     0.270482     5App    0.284603    18Ap     0.300436
       6App    0.326750    19Ap     0.373850    20Ap     0.409964
      21Ap     0.461233    22Ap     0.567108     7App    0.633061
      23Ap     0.636914    24Ap     0.641894    25Ap     0.675386
      26Ap     0.714266     8App    0.727199     9App    0.737233
      10App    0.749961    27Ap     0.784490    28Ap     0.819436
      29Ap     0.852883    11App    0.867965    30Ap     0.920086
      12App    0.940168    31Ap     0.944054    13App    0.949045
      32Ap     0.953975    33Ap     0.971852    34Ap     1.017125
      14App    1.023028    35Ap     1.047847    36Ap     1.157847
      15App    1.171943    37Ap     1.176052    38Ap     1.218203
      39Ap     1.273557    16App    1.290305    40Ap     1.335000
      17App    1.528968    41Ap     1.574513    18App    1.602033
      42Ap     1.727423    43Ap     1.822064    44Ap     1.842483
      45Ap     1.993418    19App    2.014126    46Ap     2.014180
      20App    2.055239    47Ap     2.067066    21App    2.174612
      48Ap     2.178086    22App    2.179899    49Ap     2.204845
      50Ap     2.243048    23App    2.251928    24App    2.301363
      51Ap     2.323546    52Ap     2.348786    53Ap     2.422599
      25App    2.454941    54Ap     2.461739    55Ap     2.529263
      26App    2.535648    56Ap     2.643446    57Ap     2.708775
      27App    2.730632    58Ap     2.759048    59Ap     2.862370
      60Ap     2.941353    28App    2.946723    61Ap     3.698502
      62Ap     3.902881    29App    4.036679    30App    4.146991
      63Ap     4.183994    64Ap     4.242665    31App    4.259372
      65Ap     4.290380    32App    4.300255    33App    4.392186
      66Ap     4.402529    34App    4.437168    67Ap     4.473249
      68Ap     4.588416    69Ap     4.781117    70Ap     4.964776
      35App    5.152553    71Ap     5.174442    72Ap     5.303313
      73Ap     5.379072    36App    5.523129    74Ap     5.690767
      75Ap     6.193398    37App    6.419547    76Ap     6.419555
      38App    6.449868    77Ap     6.452687    78Ap     6.534684
      39App    6.579646    79Ap     6.609905    80Ap     6.686993
      40App    6.733517    81Ap     6.916513    41App    7.004654
      82Ap     7.005729    42App    7.044138    83Ap     7.071781
      84Ap     7.131067    43App    7.150034    44App    7.273831
      85Ap     7.321614    45App    7.325355    86Ap     7.361962
      46App    7.443934    87Ap     7.654952    88Ap     7.945326
      89Ap     7.964054    90Ap     8.806921    91Ap     9.552591
      92Ap    16.431994

    Final Occupation by Irrep:
             Ap   App
    DOCC [     7,    1 ]
    SOCC [     1,    1 ]

  @UHF Final Energy:  -150.87428593261021

   => Energetics <=

    Nuclear Repulsion Energy =             22.9428972932691941
    One-Electron Energy =                -253.6745709967369180
    Two-Electron Energy =                  79.8573877708575139
    Total Energy =                       -150.8742859326102064

  UHF NO Occupations:
  HONO-2 :    7 Ap 1.9970274
  HONO-1 :    8 Ap 1.0000000
  HONO-0 :    2App 1.0000000
  LUNO+0 :    9 Ap 0.0029726
  LUNO+1 :   10 Ap 0.0017118
  LUNO+2 :   11 Ap 0.0000024
  LUNO+3 :   12 Ap 0.0000020

Computation Completed

Properties will be evaluated at   0.000000,   0.000000,   0.000000 [a0]

Properties computed using the SCF density matrix

  Nuclear Dipole Moment: [e a0]
     X:    -2.2207      Y:     0.8935      Z:     0.0000

  Electronic Dipole Moment: [e a0]
     X:     2.7444      Y:    -0.2479      Z:     0.0000

  Dipole Moment: [e a0]
     X:     0.5237      Y:     0.6457      Z:     0.0000     Total:     0.8314

  Dipole Moment: [D]
     X:     1.3311      Y:     1.6412      Z:     0.0000     Total:     2.1131

*** tstop() called on d2-22.compute.lan at Tue Mar  9 15:19:08 2021
Module time:
	user time   =      52.10 seconds =       0.87 minutes
	system time =       2.26 seconds =       0.04 minutes
	total time  =          6 seconds =       0.10 minutes
Total time:
	user time   =      52.10 seconds =       0.87 minutes
	system time =       2.26 seconds =       0.04 minutes
	total time  =          6 seconds =       0.10 minutes
 MINTS: Wrapper to libmints.
   by Justin Turney

   Calculation information:
      Number of threads:                12
      Number of atoms:                   4
      Number of AO shells:              46
      Number of SO shells:              46
      Number of primitives:             82
      Number of atomic orbitals:       160
      Number of basis functions:       138

      Number of irreps:                  2
      Integral cutoff                 0.00e+00
      Number of functions per irrep: [  92   46 ]

 OEINTS: Overlap, kinetic, potential, dipole, and quadrupole integrals
         stored in file 35.

      Computing two-electron integrals...done
      Computed 22925769 non-zero two-electron integrals.
        Stored in file 33.

*** tstart() called on d2-22.compute.lan
*** at Tue Mar  9 15:19:12 2021

	Wfn Parameters:
	--------------------
	Wavefunction         = CCSD_T
	Number of irreps     = 2
	Number of MOs        = 138
	Number of active MOs = 136
	AO-Basis             = NONE
	Semicanonical        = false
	Reference            = UHF
	Print Level          = 1

	IRREP	# MOs	# FZDC	# DOCC	# SOCC	# VIRT	# FZVR
	-----	-----	------	------	------	------	------
	 Ap	   92	    2	    5	    1	    84	    0
	 App	   46	    0	    1	    1	    44	    0
	Transforming integrals...
	IWL integrals will be deleted.
	(OO|OO)...
	Presorting SO-basis two-electron integrals.
	Sorting File: SO Ints (nn|nn) nbuckets = 1
	Transforming the one-electron integrals and constructing Fock matrices
	Starting AA/AB first half-transformation.
	Sorting AA/AB half-transformed integrals.
	Starting BB first half-transformation.
	Sorting BB half-transformed integrals.
	First half integral transformation complete.
	Starting AA second half-transformation.
	Starting AB second half-transformation.
	Starting BB second half-transformation.
	Two-electron integral transformation complete.
	(OO|OV)...
	Starting AA second half-transformation.
	Starting AB second half-transformation.
	Starting BB second half-transformation.
	Two-electron integral transformation complete.
	(OO|VV)...
	Starting AA second half-transformation.
	Starting AB second half-transformation.
	Starting BB second half-transformation.
	Two-electron integral transformation complete.
	(OV|OO)...
	Starting AA/AB first half-transformation.
	Sorting AA/AB half-transformed integrals.
	Starting BB first half-transformation.
	Sorting BB half-transformed integrals.
	First half integral transformation complete.
	Starting AA second half-transformation.
	Starting AB second half-transformation.
	Starting BB second half-transformation.
	Two-electron integral transformation complete.
	(OV|OV)...
	Starting AA second half-transformation.
	Starting AB second half-transformation.
	Starting BB second half-transformation.
	Two-electron integral transformation complete.
	(OV|VV)...
	Starting AA second half-transformation.
	Starting AB second half-transformation.
	Starting BB second half-transformation.
	Two-electron integral transformation complete.
	(VV|OO)...
	Starting AA/AB first half-transformation.
	Sorting AA/AB half-transformed integrals.
	Starting BB first half-transformation.
	Sorting BB half-transformed integrals.
	First half integral transformation complete.
	Starting AA second half-transformation.
	Starting AB second half-transformation.
	Starting BB second half-transformation.
	Two-electron integral transformation complete.
	(VV|OV)...
	Starting AA second half-transformation.
	Starting AB second half-transformation.
	Starting BB second half-transformation.
	Two-electron integral transformation complete.
	(VV|VV)...
	Starting AA second half-transformation.
	Starting AB second half-transformation.
	Starting BB second half-transformation.
	Two-electron integral transformation complete.
	Frozen core energy     =   -125.86793039107023

	Size of irrep 0 of <AB|CD> integrals:     19.643 (MW) /    157.141 (MB)
	Size of irrep 1 of <AB|CD> integrals:     13.660 (MW) /    109.283 (MB)
	Total:                                    33.303 (MW) /    266.424 (MB)

	Size of irrep 0 of <ab|cd> integrals:     20.794 (MW) /    166.349 (MB)
	Size of irrep 1 of <ab|cd> integrals:     14.631 (MW) /    117.045 (MB)
	Total:                                    35.424 (MW) /    283.394 (MB)

	Size of irrep 0 of <Ab|Cd> integrals:     83.174 (MW) /    665.395 (MB)
	Size of irrep 1 of <Ab|Cd> integrals:     56.550 (MW) /    452.403 (MB)
	Total:                                   139.725 (MW) /   1117.798 (MB)

	Size of irrep 0 of <IA|BC> integrals:      5.323 (MW) /     42.586 (MB)
	Size of irrep 1 of <IA|BC> integrals:      3.193 (MW) /     25.547 (MB)
	Total:                                     8.517 (MW) /     68.133 (MB)

	Size of irrep 0 of <ia|bc> integrals:      4.348 (MW) /     34.780 (MB)
	Size of irrep 1 of <ia|bc> integrals:      2.372 (MW) /     18.972 (MB)
	Total:                                     6.719 (MW) /     53.752 (MB)

	Size of irrep 0 of <Ia|Bc> integrals:      5.472 (MW) /     43.776 (MB)
	Size of irrep 1 of <Ia|Bc> integrals:      3.309 (MW) /     26.470 (MB)
	Total:                                     8.781 (MW) /     70.246 (MB)

	Size of irrep 0 of <iA|bC> integrals:      4.232 (MW) /     33.853 (MB)
	Size of irrep 1 of <iA|bC> integrals:      2.286 (MW) /     18.289 (MB)
	Total:                                     6.518 (MW) /     52.142 (MB)

	Size of irrep 0 of tIjAb amplitudes:       0.292 (MW) /      2.335 (MB)
	Size of irrep 1 of tIjAb amplitudes:       0.120 (MW) /      0.963 (MB)
	Total:                                     0.412 (MW) /      3.297 (MB)

	Nuclear Rep. energy          =     22.94289729326919
	SCF energy                   =   -150.87428593261021
	One-electron energy          =    -84.44629914568787
	Two-electron (AA) energy     =     10.14346366850067
	Two-electron (BB) energy     =      5.39632184324635
	Two-electron (AB) energy     =     20.95726079913080
	Two-electron energy          =     36.49704631087782
	Reference energy             =   -150.87428593261109

*** tstop() called on d2-22.compute.lan at Tue Mar  9 15:19:50 2021
Module time:
	user time   =     220.89 seconds =       3.68 minutes
	system time =      18.04 seconds =       0.30 minutes
	total time  =         38 seconds =       0.63 minutes
Total time:
	user time   =     280.29 seconds =       4.67 minutes
	system time =      21.23 seconds =       0.35 minutes
	total time  =         48 seconds =       0.80 minutes
            **************************
            *                        *
            *        CCENERGY        *
            *                        *
            **************************

    Nuclear Rep. energy (wfn)     =   22.942897293269194
    SCF energy          (wfn)     = -150.874285932610206
    Reference energy    (file100) = -150.874285932611087

    Input parameters:
    -----------------
    Wave function   =     CCSD_T
    Reference wfn   =     UHF
    Brueckner       =     No
    Memory (Mbytes) =     4000.0
    Maxiter         =     50
    R_Convergence   =     1.0e-10
    E_Convergence   =     1.0e-10
    Restart         =     Yes
    DIIS            =     Yes
    AO Basis        =     NONE
    ABCD            =     NEW
    Cache Level     =     2
    Cache Type      =     LRU
    Print Level     =     1
    Num. of threads =     12
    # Amps to Print =     10
    Print MP2 Amps? =     No
    Analyze T2 Amps =     No
    Print Pair Ener =     No
    Local CC        =     No
    SCS-MP2         =     False
    SCSN-MP2        =     False
    SCS-CCSD        =     False

MP2 correlation energy -0.4167599162070939
                Solving CC Amplitude Equations
                ------------------------------
  Iter             Energy              RMS        T1Diag      D1Diag    New D1Diag    D2Diag
  ----     ---------------------    ---------   ----------  ----------  ----------   --------
     0        -0.416759916207094    0.000e+00    0.000000    0.000000    0.000000    0.000000
     1        -0.427447276096426    5.697e-02    0.010571    0.000000    0.000000    0.000000
     2        -0.435551751329133    1.692e-02    0.011054    0.000000    0.000000    0.000000
     3        -0.437675589651300    8.598e-03    0.012932    0.000000    0.000000    0.000000
     4        -0.437550171015650    2.539e-03    0.013302    0.000000    0.000000    0.000000
     5        -0.437534978985545    1.332e-03    0.013461    0.000000    0.000000    0.000000
     6        -0.437562412350479    5.184e-04    0.013485    0.000000    0.000000    0.000000
     7        -0.437567212457395    2.719e-04    0.013480    0.000000    0.000000    0.000000
     8        -0.437567777574100    1.005e-04    0.013476    0.000000    0.000000    0.000000
     9        -0.437569196407383    7.335e-05    0.013477    0.000000    0.000000    0.000000
    10        -0.437567578622526    6.174e-05    0.013479    0.000000    0.000000    0.000000
    11        -0.437567729901994    5.830e-05    0.013480    0.000000    0.000000    0.000000
    12        -0.437567496649438    5.646e-05    0.013482    0.000000    0.000000    0.000000
    13        -0.437567495392457    5.543e-05    0.013484    0.000000    0.000000    0.000000
    14        -0.437568540510752    5.393e-05    0.013497    0.000000    0.000000    0.000000
    15        -0.437568904309801    4.861e-05    0.013554    0.000000    0.000000    0.000000
    16        -0.437568663593591    3.369e-05    0.013681    0.000000    0.000000    0.000000
    17        -0.437568333839813    1.657e-05    0.013750    0.000000    0.000000    0.000000
    18        -0.437568186674187    7.788e-06    0.013768    0.000000    0.000000    0.000000
    19        -0.437568436042661    3.448e-06    0.013773    0.000000    0.000000    0.000000
    20        -0.437568552260930    1.537e-06    0.013774    0.000000    0.000000    0.000000
    21        -0.437568560064718    6.194e-07    0.013774    0.000000    0.000000    0.000000
    22        -0.437568561603232    2.945e-07    0.013774    0.000000    0.000000    0.000000
    23        -0.437568560612290    1.524e-07    0.013774    0.000000    0.000000    0.000000
    24        -0.437568559689601    6.157e-08    0.013774    0.000000    0.000000    0.000000
    25        -0.437568560652621    3.200e-08    0.013774    0.000000    0.000000    0.000000
    26        -0.437568561119955    2.388e-08    0.013774    0.000000    0.000000    0.000000
    27        -0.437568561274057    2.222e-08    0.013774    0.000000    0.000000    0.000000
    28        -0.437568561237644    2.156e-08    0.013774    0.000000    0.000000    0.000000
    29        -0.437568561109395    2.107e-08    0.013774    0.000000    0.000000    0.000000
    30        -0.437568560872149    2.041e-08    0.013774    0.000000    0.000000    0.000000
    31        -0.437568560933802    1.839e-08    0.013774    0.000000    0.000000    0.000000
    32        -0.437568561252900    1.136e-08    0.013774    0.000000    0.000000    0.000000
    33        -0.437568561373068    5.182e-09    0.013774    0.000000    0.000000    0.000000
    34        -0.437568561444773    2.138e-09    0.013774    0.000000    0.000000    0.000000
    35        -0.437568561453341    8.052e-10    0.013774    0.000000    0.000000    0.000000
    36        -0.437568561454169    3.324e-10    0.013774    0.000000    0.000000    0.000000

      * MP2 total energy                      = -151.291045848818186
      * CCSD total energy                     = -151.311854494065159
      * CCSD(T) total energy                     = -151.324232818884326
*** Psi4 exiting successfully. Buy a developer a beer!
