                               Psi4 1.3.2 release

  ==> Input File <==

--------------------------------------------------------------------------
memory 4 GB

molecule  {
0 3
O    0.000000000000    0.000000000000    1.270171727222
H    0.000000000000   -0.759829662100    1.857794414004
H   -0.000000000000    0.759829662100    1.857794414004
O    0.000000000000    0.000000000000   -1.504287602137
}
set {
basis aug-cc-pvtz
reference uhf
e_convergence 10
scf_type pk
freeze_core true
}

set ccenergy {
e_convergence 10
r_convergence 10
}

e = energy('ccsd(t)')

print_out('Stephenergy {}'.format(e))

--------------------------------------------------------------------------

    Molecular point group: c2v

    Geometry (in Angstrom), charge = 0, multiplicity = 3:

       Center              X                  Y                   Z               Mass
    ------------   -----------------  -----------------  -----------------  -----------------
         O            0.000000000000     0.000000000000     1.270171727222    15.994914619570
         H            0.000000000000    -0.759829662100     1.857794414004     1.007825032230
         H           -0.000000000000     0.759829662100     1.857794414004     1.007825032230
         O            0.000000000000     0.000000000000    -1.504287602137    15.994914619570

  Charge       = 0
  Multiplicity = 3
  Basis Set: AUG-CC-PVTZ
    Blend: AUG-CC-PVTZ

    Orbital Energies [Eh]
    ---------------------

    Alpha Occupied:

       1A1   -20.684532     2A1   -20.570940     3A1    -1.393955
       4A1    -1.355709     1B2    -0.719624     5A1    -0.688204
       1B1    -0.685255     6A1    -0.586334     2B2    -0.586266
       2B1    -0.514011

    Alpha Virtual:

       7A1     0.029580     3B2     0.047668     8A1     0.118576
       3B1     0.153995     9A1     0.159537     4B2     0.180297
       5B2     0.186904     4B1     0.192715    10A1     0.197985
       1A2     0.263657     6B2     0.264193    11A1     0.264767
      12A1     0.314405     5B1     0.326953    13A1     0.376081
       7B2     0.380320    14A1     0.450135     8B2     0.464537
       9B2     0.600113     6B1     0.643486    15A1     0.647357
       2A2     0.658169    16A1     0.666624    17A1     0.696148
       3A2     0.721530    10B2     0.722622     7B1     0.767637
      18A1     0.792976    19A1     0.818674     8B1     0.837762
      20A1     0.861075     9B1     0.901269    11B2     0.918733
       4A2     0.924788    12B2     0.946273    13B2     0.979803
      21A1     0.990237    10B1     1.012662    22A1     1.046694
      14B2     1.051642    11B1     1.122318     5A2     1.176811
      23A1     1.191805    15B2     1.198765    16B2     1.326820
      24A1     1.336024    25A1     1.444003     6A2     1.507679
      12B1     1.595030    26A1     1.667030    27A1     1.811631
      17B2     1.821532    18B2     1.978468    28A1     2.040781
      13B1     2.047790    19B2     2.054055     7A2     2.056768
      14B1     2.058928    29A1     2.079332    30A1     2.114889
       8A2     2.118689    20B2     2.135333    31A1     2.141141
      15B1     2.145217    32A1     2.252056    21B2     2.267306
      16B1     2.303328     9A2     2.312129    17B1     2.434149
      33A1     2.470144    22B2     2.481476    34A1     2.486517
      35A1     2.696065    18B1     2.715920    23B2     2.721023
      36A1     2.839888    24B2     2.863397    10A2     2.880632
      25B2     3.692215    37A1     3.755918    11A2     4.013404
      19B1     4.080615    20B1     4.099409    38A1     4.141891
      26B2     4.183417    27B2     4.281774    21B1     4.291648
      39A1     4.351493    12A2     4.382228    40A1     4.428678
      22B1     4.451795    28B2     4.515103    41A1     4.789019
      29B2     4.841311    30B2     5.141678    13A2     5.147402
      31B2     5.251583    42A1     5.343759    23B1     5.518405
      43A1     5.687650    44A1     6.198413    24B1     6.388986
      45A1     6.408948    14A2     6.410140    32B2     6.423583
      25B1     6.435502    33B2     6.485847    46A1     6.536061
      34B2     6.581887    26B1     6.716380    27B1     6.902306
      47A1     6.905653    15A2     6.924505    48A1     6.939584
      35B2     6.985601    49A1     7.046426    28B1     7.136338
      29B1     7.278808    16A2     7.307697    36B2     7.313992
      17A2     7.353071    50A1     7.437136    51A1     7.545567
      52A1     7.912642    37B2     7.917531    38B2     8.808696
      53A1     8.860684    54A1    15.804234

    Beta Occupied:

       1A1   -20.605667     2A1   -20.570477     3A1    -1.355023
       4A1    -1.051147     1B2    -0.719295     5A1    -0.588057
       1B1    -0.513350     2B2    -0.495685

    Beta Virtual:

       6A1     0.029421     3B2     0.047749     2B1     0.086494
       7A1     0.091923     8A1     0.140938     9A1     0.167055
       3B1     0.170546     4B2     0.180915     5B2     0.190505
      10A1     0.225547     4B1     0.253276     1A2     0.263659
       6B2     0.264638    11A1     0.288396    12A1     0.316834
       5B1     0.328252     7B2     0.380493    13A1     0.386380
      14A1     0.451202     8B2     0.464733     9B2     0.601737
      15A1     0.660447     6B1     0.667279     2A2     0.672594
      16A1     0.673701    17A1     0.713383     3A2     0.721990
      10B2     0.734830     7B1     0.778926    18A1     0.806315
       8B1     0.846961    19A1     0.850912     4A2     0.925177
      20A1     0.927942    11B2     0.936452    12B2     0.953364
      13B2     0.983564     9B1     0.986663    21A1     0.997440
      14B2     1.052736    22A1     1.052862    10B1     1.060417
      11B1     1.138349     5A2     1.177006    23A1     1.193298
      15B2     1.201470    16B2     1.329226    24A1     1.392626
      25A1     1.483448     6A2     1.508097    12B1     1.596999
      26A1     1.697105    27A1     1.816662    17B2     1.821863
      18B2     1.979893    28A1     2.070367    13B1     2.070809
      19B2     2.071474     7A2     2.081408    29A1     2.099760
      14B1     2.100390    30A1     2.156130    20B2     2.181061
       8A2     2.201912    31A1     2.207746    15B1     2.258221
      32A1     2.308831     9A2     2.312259    21B2     2.319077
      16B1     2.319136    17B1     2.442029    33A1     2.483332
      22B2     2.484331    34A1     2.514905    35A1     2.703582
      18B1     2.717621    23B2     2.721929    36A1     2.851911
      24B2     2.863572    10A2     2.880666    25B2     3.693092
      37A1     3.756055    11A2     4.013432    19B1     4.083055
      38A1     4.174469    26B2     4.219074    20B1     4.260153
      27B2     4.292591    21B1     4.295890    12A2     4.382334
      39A1     4.427319    22B1     4.456920    40A1     4.468103
      28B2     4.515182    41A1     4.799797    29B2     4.841465
      30B2     5.141861    13A2     5.147477    31B2     5.251990
      42A1     5.344398    23B1     5.518515    43A1     5.692185
      44A1     6.200071    24B1     6.485605    14A2     6.486970
      32B2     6.487749    45A1     6.493126    25B1     6.499284
      33B2     6.521580    46A1     6.607751    34B2     6.609694
      26B1     6.723231    47A1     6.954980    15A2     7.038058
      48A1     7.041945    27B1     7.084898    35B2     7.097466
      28B1     7.136729    49A1     7.173858    29B1     7.282917
      16A2     7.307971    36B2     7.314176    17A2     7.353474
      50A1     7.439914    51A1     7.546616    52A1     7.913199
      37B2     7.917878    38B2     8.809067    53A1     8.940108
      54A1    15.804552

    Final Occupation by Irrep:
             A1    A2    B1    B2
    DOCC [     5,    0,    1,    2 ]
    SOCC [     1,    0,    1,    0 ]

  @UHF Final Energy:  -150.87361962672230

   => Energetics <=

    Nuclear Repulsion Energy =             23.8260686196894262
    One-Electron Energy =                -255.7158443097462168
    Two-Electron Energy =                  81.0161560633344777
    Total Energy =                       -150.8736196267223022

  UHF NO Occupations:
  HONO-2 :    5 A1 1.9970493
  HONO-1 :    6 A1 1.0000000
  HONO-0 :    2 B1 1.0000000
  LUNO+0 :    7 A1 0.0029507
  LUNO+1 :    3 B2 0.0017951
  LUNO+2 :    8 A1 0.0000217
  LUNO+3 :    9 A1 0.0000024

Computation Completed

Properties will be evaluated at   0.000000,   0.000000,   0.000000 [a0]

Properties computed using the SCF density matrix

  Nuclear Dipole Moment: [e a0]
     X:     0.0000      Y:     0.0000      Z:     3.4821

  Electronic Dipole Moment: [e a0]
     X:     0.0000      Y:     0.0000      Z:    -2.6471

  Dipole Moment: [e a0]
     X:     0.0000      Y:     0.0000      Z:     0.8350     Total:     0.8350

  Dipole Moment: [D]
     X:     0.0000      Y:     0.0000      Z:     2.1223     Total:     2.1223

*** tstop() called on d1-15.compute.lan at Mon Mar  8 17:48:24 2021
Module time:
	user time   =      43.64 seconds =       0.73 minutes
	system time =       2.40 seconds =       0.04 minutes
	total time  =          6 seconds =       0.10 minutes
Total time:
	user time   =      43.64 seconds =       0.73 minutes
	system time =       2.40 seconds =       0.04 minutes
	total time  =          6 seconds =       0.10 minutes
 MINTS: Wrapper to libmints.
   by Justin Turney

   Calculation information:
      Number of threads:                12
      Number of atoms:                   4
      Number of AO shells:              46
      Number of SO shells:              37
      Number of primitives:             82
      Number of atomic orbitals:       160
      Number of basis functions:       138

      Number of irreps:                  4
      Integral cutoff                 0.00e+00
      Number of functions per irrep: [  54   17   29   38 ]

 OEINTS: Overlap, kinetic, potential, dipole, and quadrupole integrals
         stored in file 35.

      Computing two-electron integrals...done
      Computed 11333618 non-zero two-electron integrals.
        Stored in file 33.

*** tstart() called on d1-15.compute.lan
*** at Mon Mar  8 17:48:27 2021

	Wfn Parameters:
	--------------------
	Wavefunction         = CCSD_T
	Number of irreps     = 4
	Number of MOs        = 138
	Number of active MOs = 136
	AO-Basis             = NONE
	Semicanonical        = false
	Reference            = UHF
	Print Level          = 1

	IRREP	# MOs	# FZDC	# DOCC	# SOCC	# VIRT	# FZVR
	-----	-----	------	------	------	------	------
	 A1	   54	    2	    3	    1	    48	    0
	 A2	   17	    0	    0	    0	    17	    0
	 B1	   29	    0	    1	    1	    27	    0
	 B2	   38	    0	    2	    0	    36	    0
	Transforming integrals...
	IWL integrals will be deleted.
	(OO|OO)...
	Presorting SO-basis two-electron integrals.
	Sorting File: SO Ints (nn|nn) nbuckets = 1
	Transforming the one-electron integrals and constructing Fock matrices
	Starting AA/AB first half-transformation.
	Sorting AA/AB half-transformed integrals.
	Starting BB first half-transformation.
	Sorting BB half-transformed integrals.
	First half integral transformation complete.
	Starting AA second half-transformation.
	Starting AB second half-transformation.
	Starting BB second half-transformation.
	Two-electron integral transformation complete.
	(OO|OV)...
	Starting AA second half-transformation.
	Starting AB second half-transformation.
	Starting BB second half-transformation.
	Two-electron integral transformation complete.
	(OO|VV)...
	Starting AA second half-transformation.
	Starting AB second half-transformation.
	Starting BB second half-transformation.
	Two-electron integral transformation complete.
	(OV|OO)...
	Starting AA/AB first half-transformation.
	Sorting AA/AB half-transformed integrals.
	Starting BB first half-transformation.
	Sorting BB half-transformed integrals.
	First half integral transformation complete.
	Starting AA second half-transformation.
	Starting AB second half-transformation.
	Starting BB second half-transformation.
	Two-electron integral transformation complete.
	(OV|OV)...
	Starting AA second half-transformation.
	Starting AB second half-transformation.
	Starting BB second half-transformation.
	Two-electron integral transformation complete.
	(OV|VV)...
	Starting AA second half-transformation.
	Starting AB second half-transformation.
	Starting BB second half-transformation.
	Two-electron integral transformation complete.
	(VV|OO)...
	Starting AA/AB first half-transformation.
	Sorting AA/AB half-transformed integrals.
	Starting BB first half-transformation.
	Sorting BB half-transformed integrals.
	First half integral transformation complete.
	Starting AA second half-transformation.
	Starting AB second half-transformation.
	Starting BB second half-transformation.
	Two-electron integral transformation complete.
	(VV|OV)...
	Starting AA second half-transformation.
	Starting AB second half-transformation.
	Starting BB second half-transformation.
	Two-electron integral transformation complete.
	(VV|VV)...
	Starting AA second half-transformation.
	Starting AB second half-transformation.
	Starting BB second half-transformation.
	Two-electron integral transformation complete.
	Frozen core energy     =   -126.36900444886697

	Size of irrep 0 of <AB|CD> integrals:      5.040 (MW) /     40.320 (MB)
	Size of irrep 1 of <AB|CD> integrals:      3.197 (MW) /     25.576 (MB)
	Size of irrep 2 of <AB|CD> integrals:      3.640 (MW) /     29.124 (MB)
	Size of irrep 3 of <AB|CD> integrals:      4.783 (MW) /     38.264 (MB)
	Total:                                    16.660 (MW) /    133.283 (MB)

	Size of irrep 0 of <ab|cd> integrals:      5.382 (MW) /     43.059 (MB)
	Size of irrep 1 of <ab|cd> integrals:      3.389 (MW) /     27.114 (MB)
	Size of irrep 2 of <ab|cd> integrals:      3.936 (MW) /     31.490 (MB)
	Size of irrep 3 of <ab|cd> integrals:      5.018 (MW) /     40.141 (MB)
	Total:                                    17.726 (MW) /    141.804 (MB)

	Size of irrep 0 of <Ab|Cd> integrals:     22.024 (MW) /    176.194 (MB)
	Size of irrep 1 of <Ab|Cd> integrals:     13.170 (MW) /    105.357 (MB)
	Size of irrep 2 of <Ab|Cd> integrals:     15.140 (MW) /    121.119 (MB)
	Size of irrep 3 of <Ab|Cd> integrals:     19.598 (MW) /    156.787 (MB)
	Total:                                    69.932 (MW) /    559.457 (MB)

	Size of irrep 0 of <IA|BC> integrals:      1.469 (MW) /     11.748 (MB)
	Size of irrep 1 of <IA|BC> integrals:      0.694 (MW) /      5.550 (MB)
	Size of irrep 2 of <IA|BC> integrals:      0.908 (MW) /      7.266 (MB)
	Size of irrep 3 of <IA|BC> integrals:      1.198 (MW) /      9.588 (MB)
	Total:                                     4.269 (MW) /     34.152 (MB)

	Size of irrep 0 of <ia|bc> integrals:      1.178 (MW) /      9.426 (MB)
	Size of irrep 1 of <ia|bc> integrals:      0.527 (MW) /      4.212 (MB)
	Size of irrep 2 of <ia|bc> integrals:      0.663 (MW) /      5.301 (MB)
	Size of irrep 3 of <ia|bc> integrals:      0.999 (MW) /      7.992 (MB)
	Total:                                     3.366 (MW) /     26.931 (MB)

	Size of irrep 0 of <Ia|Bc> integrals:      1.521 (MW) /     12.164 (MB)
	Size of irrep 1 of <Ia|Bc> integrals:      0.711 (MW) /      5.690 (MB)
	Size of irrep 2 of <Ia|Bc> integrals:      0.949 (MW) /      7.595 (MB)
	Size of irrep 3 of <Ia|Bc> integrals:      1.222 (MW) /      9.775 (MB)
	Total:                                     4.403 (MW) /     35.225 (MB)

	Size of irrep 0 of <iA|bC> integrals:      1.140 (MW) /      9.123 (MB)
	Size of irrep 1 of <iA|bC> integrals:      0.512 (MW) /      4.094 (MB)
	Size of irrep 2 of <iA|bC> integrals:      0.634 (MW) /      5.074 (MB)
	Size of irrep 3 of <iA|bC> integrals:      0.978 (MW) /      7.827 (MB)
	Total:                                     3.265 (MW) /     26.118 (MB)

	Size of irrep 0 of tIjAb amplitudes:       0.084 (MW) /      0.676 (MB)
	Size of irrep 1 of tIjAb amplitudes:       0.022 (MW) /      0.174 (MB)
	Size of irrep 2 of tIjAb amplitudes:       0.039 (MW) /      0.311 (MB)
	Size of irrep 3 of tIjAb amplitudes:       0.062 (MW) /      0.496 (MB)
	Total:                                     0.207 (MW) /      1.657 (MB)

	Nuclear Rep. energy          =     23.82606861968943
	SCF energy                   =   -150.87361962672230
	One-electron energy          =    -85.40945097025764
	Two-electron (AA) energy     =     10.36294899342943
	Two-electron (BB) energy     =      5.46687399230673
	Two-electron (AB) energy     =     21.24894418697568
	Two-electron energy          =     37.07876717271184
	Reference energy             =   -150.87361962672335

*** tstop() called on d1-15.compute.lan at Mon Mar  8 17:49:42 2021
Module time:
	user time   =     625.39 seconds =      10.42 minutes
	system time =      36.96 seconds =       0.62 minutes
	total time  =         75 seconds =       1.25 minutes
Total time:
	user time   =     674.57 seconds =      11.24 minutes
	system time =      39.92 seconds =       0.67 minutes
	total time  =         84 seconds =       1.40 minutes
            **************************
            *                        *
            *        CCENERGY        *
            *                        *
            **************************

    Nuclear Rep. energy (wfn)     =   23.826068619689426
    SCF energy          (wfn)     = -150.873619626722302
    Reference energy    (file100) = -150.873619626723354

    Input parameters:
    -----------------
    Wave function   =     CCSD_T
    Reference wfn   =     UHF
    Brueckner       =     No
    Memory (Mbytes) =     4000.0
    Maxiter         =     50
    R_Convergence   =     1.0e-10
    E_Convergence   =     1.0e-10
    Restart         =     Yes
    DIIS            =     Yes
    AO Basis        =     NONE
    ABCD            =     NEW
    Cache Level     =     2
    Cache Type      =     LRU
    Print Level     =     1
    Num. of threads =     12
    # Amps to Print =     10
    Print MP2 Amps? =     No
    Analyze T2 Amps =     No
    Print Pair Ener =     No
    Local CC        =     No
    SCS-MP2         =     False
    SCSN-MP2        =     False
    SCS-CCSD        =     False

MP2 correlation energy -0.4161761703057326
                Solving CC Amplitude Equations
                ------------------------------
  Iter             Energy              RMS        T1Diag      D1Diag    New D1Diag    D2Diag
  ----     ---------------------    ---------   ----------  ----------  ----------   --------
     0        -0.416176170305733    0.000e+00    0.000000    0.000000    0.000000    0.000000
     1        -0.426984620369089    5.691e-02    0.010566    0.000000    0.000000    0.000000
     2        -0.435070114900430    1.700e-02    0.011062    0.000000    0.000000    0.000000
     3        -0.437216839702808    8.760e-03    0.012980    0.000000    0.000000    0.000000
     4        -0.437090483403794    2.679e-03    0.013389    0.000000    0.000000    0.000000
     5        -0.437081012681815    1.394e-03    0.013581    0.000000    0.000000    0.000000
     6        -0.437110128248135    5.291e-04    0.013608    0.000000    0.000000    0.000000
     7        -0.437113103320729    2.144e-04    0.013602    0.000000    0.000000    0.000000
     8        -0.437114033546923    6.669e-05    0.013597    0.000000    0.000000    0.000000
     9        -0.437114719957556    2.382e-05    0.013596    0.000000    0.000000    0.000000
    10        -0.437113820633258    9.211e-06    0.013596    0.000000    0.000000    0.000000
    11        -0.437113985401904    3.995e-06    0.013596    0.000000    0.000000    0.000000
    12        -0.437113945766065    1.443e-06    0.013596    0.000000    0.000000    0.000000
    13        -0.437113953623821    7.293e-07    0.013596    0.000000    0.000000    0.000000
    14        -0.437113976176491    3.040e-07    0.013596    0.000000    0.000000    0.000000
    15        -0.437113977912977    1.108e-07    0.013596    0.000000    0.000000    0.000000
    16        -0.437113978487789    4.959e-08    0.013596    0.000000    0.000000    0.000000
    17        -0.437113979067088    1.909e-08    0.013596    0.000000    0.000000    0.000000
    18        -0.437113978926190    9.899e-09    0.013596    0.000000    0.000000    0.000000

      * MP2 total energy                      = -151.289795797029086
      * CCSD total energy                     = -151.310733605406881
      * CCSD(T) total energy                     = -151.323014823326446
*** Psi4 exiting successfully. Buy a developer a beer!
