                               Psi4 1.3.2 release

  ==> Input File <==

--------------------------------------------------------------------------
memory 4 GB

molecule  {
0 1
O    0.000000000000    0.000000000000   -0.065780035862
H    0.000000000000   -0.758933255000    0.521988452179
H   -0.000000000000    0.758933255000    0.521988452179
}
set {
basis aug-cc-pvtz
reference uhf
e_convergence 10
scf_type pk
freeze_core true
}

set ccenergy {
e_convergence 10
r_convergence 10
}

e = energy('ccsd(t)')

print_out('Stephenergy {}'.format(e))

--------------------------------------------------------------------------

    Molecular point group: c2v

    Geometry (in Angstrom), charge = 0, multiplicity = 1:

       Center              X                  Y                   Z               Mass
    ------------   -----------------  -----------------  -----------------  -----------------
         O            0.000000000000     0.000000000000    -0.065780035862    15.994914619570
         H            0.000000000000    -0.758933255000     0.521988452179     1.007825032230
         H           -0.000000000000     0.758933255000     0.521988452179     1.007825032230

  Charge       = 0
  Multiplicity = 1
  Basis Set: AUG-CC-PVTZ
    Blend: AUG-CC-PVTZ

    Orbital Energies [Eh]
    ---------------------

    Alpha Occupied:

       1A1   -20.567678     2A1    -1.352237     1B2    -0.716321
       3A1    -0.584486     1B1    -0.510149

    Alpha Virtual:

       4A1     0.029409     2B2     0.047675     5A1     0.135948
       2B1     0.158649     6A1     0.175127     3B2     0.182987
       4B2     0.227376     7A1     0.244934     1A2     0.265261
       3B1     0.300466     8A1     0.310421     5B2     0.365771
       9A1     0.437629     6B2     0.466312     7B2     0.599509
      10A1     0.658219    11A1     0.708295     2A2     0.722325
       4B1     0.731631    12A1     0.830610     5B1     0.846139
      13A1     0.891768     8B2     0.912762     6B1     0.918604
       3A2     0.922352     9B2     0.930604    14A1     0.962285
      15A1     1.021475    10B2     1.043663     7B1     1.082854
      11B2     1.109045     4A2     1.176126    16A1     1.181725
      12B2     1.260425     5A2     1.510691    17A1     1.537479
       8B1     1.584366    18A1     1.804023    13B2     1.818203
      14B2     1.986809    19A1     2.117937     9B1     2.262477
       6A2     2.316083    20A1     2.326001    21A1     2.418326
      10B1     2.420262    15B2     2.442632    22A1     2.478748
      16B2     2.677215    11B1     2.698032    23A1     2.771137
      17B2     2.819139     7A2     2.884468    18B2     3.653200
      24A1     3.745411     8A2     4.017018    12B1     4.084398
      25A1     4.168864    19B2     4.246925    13B1     4.292058
      26A1     4.376824     9A2     4.377816    14B1     4.405199
      20B2     4.515901    27A1     4.724295    21B2     4.843435
      22B2     5.146092    10A2     5.152150    23B2     5.255758
      28A1     5.327432    15B1     5.522882    29A1     5.668315
      30A1     6.175510    24B2     6.514449    16B1     6.709239
      31A1     6.895396    17B1     7.133059    18B1     7.252052
      25B2     7.308350    11A2     7.313094    32A1     7.325156
      12A2     7.355609    33A1     7.535325    34A1     7.903204
      26B2     7.922828    27B2     8.802892    35A1    15.751066

    Beta Occupied:

       1A1   -20.567678     2A1    -1.352237     1B2    -0.716321
       3A1    -0.584486     1B1    -0.510149

    Beta Virtual:

       4A1     0.029409     2B2     0.047675     5A1     0.135948
       2B1     0.158649     6A1     0.175127     3B2     0.182987
       4B2     0.227376     7A1     0.244934     1A2     0.265261
       3B1     0.300466     8A1     0.310421     5B2     0.365771
       9A1     0.437629     6B2     0.466312     7B2     0.599509
      10A1     0.658219    11A1     0.708295     2A2     0.722325
       4B1     0.731631    12A1     0.830610     5B1     0.846139
      13A1     0.891768     8B2     0.912762     6B1     0.918604
       3A2     0.922352     9B2     0.930604    14A1     0.962285
      15A1     1.021475    10B2     1.043663     7B1     1.082854
      11B2     1.109045     4A2     1.176126    16A1     1.181725
      12B2     1.260425     5A2     1.510691    17A1     1.537479
       8B1     1.584366    18A1     1.804023    13B2     1.818203
      14B2     1.986809    19A1     2.117937     9B1     2.262477
       6A2     2.316083    20A1     2.326001    21A1     2.418326
      10B1     2.420262    15B2     2.442632    22A1     2.478748
      16B2     2.677215    11B1     2.698032    23A1     2.771137
      17B2     2.819139     7A2     2.884468    18B2     3.653200
      24A1     3.745411     8A2     4.017018    12B1     4.084398
      25A1     4.168864    19B2     4.246925    13B1     4.292058
      26A1     4.376824     9A2     4.377816    14B1     4.405199
      20B2     4.515901    27A1     4.724295    21B2     4.843435
      22B2     5.146092    10A2     5.152150    23B2     5.255758
      28A1     5.327432    15B1     5.522882    29A1     5.668315
      30A1     6.175510    24B2     6.514449    16B1     6.709239
      31A1     6.895396    17B1     7.133059    18B1     7.252052
      25B2     7.308350    11A2     7.313094    32A1     7.325156
      12A2     7.355609    33A1     7.535325    34A1     7.903204
      26B2     7.922828    27B2     8.802892    35A1    15.751066

    Final Occupation by Irrep:
             A1    A2    B1    B2
    DOCC [     3,    0,    1,    1 ]
    SOCC [     0,    0,    0,    0 ]

  @UHF Final Energy:   -76.06042075810471

   => Energetics <=

    Nuclear Repulsion Energy =              9.1689631654827739
    One-Electron Energy =                -122.9970259419078644
    Two-Electron Energy =                  37.7676420183203732
    Total Energy =                        -76.0604207581047120

  UHF NO Occupations:
  HONO-2 :    3 A1 2.0000000
  HONO-1 :    1 B1 2.0000000
  HONO-0 :    1 B2 2.0000000
  LUNO+0 :    4 A1 0.0000000
  LUNO+1 :    2 B1 0.0000000
  LUNO+2 :    5 A1 0.0000000
  LUNO+3 :    6 A1 0.0000000

Computation Completed

Properties will be evaluated at   0.000000,   0.000000,   0.000000 [a0]

Properties computed using the SCF density matrix

  Nuclear Dipole Moment: [e a0]
     X:     0.0000      Y:     0.0000      Z:     0.9784

  Electronic Dipole Moment: [e a0]
     X:     0.0000      Y:     0.0000      Z:    -0.1973

  Dipole Moment: [e a0]
     X:     0.0000      Y:     0.0000      Z:     0.7810     Total:     0.7810

  Dipole Moment: [D]
     X:     0.0000      Y:     0.0000      Z:     1.9852     Total:     1.9852

*** tstop() called on c2-24.compute.lan at Mon Mar  8 09:42:51 2021
Module time:
	user time   =      13.27 seconds =       0.22 minutes
	system time =       0.70 seconds =       0.01 minutes
	total time  =          2 seconds =       0.03 minutes
Total time:
	user time   =      13.27 seconds =       0.22 minutes
	system time =       0.70 seconds =       0.01 minutes
	total time  =          2 seconds =       0.03 minutes
 MINTS: Wrapper to libmints.
   by Justin Turney

   Calculation information:
      Number of threads:                12
      Number of atoms:                   3
      Number of AO shells:              32
      Number of SO shells:              23
      Number of primitives:             52
      Number of atomic orbitals:       105
      Number of basis functions:        92

      Number of irreps:                  4
      Integral cutoff                 0.00e+00
      Number of functions per irrep: [  35   12   18   27 ]

 OEINTS: Overlap, kinetic, potential, dipole, and quadrupole integrals
         stored in file 35.

      Computing two-electron integrals...done
      Computed 2240255 non-zero two-electron integrals.
        Stored in file 33.

*** tstart() called on c2-24.compute.lan
*** at Mon Mar  8 09:42:52 2021

	Wfn Parameters:
	--------------------
	Wavefunction         = CCSD_T
	Number of irreps     = 4
	Number of MOs        = 92
	Number of active MOs = 91
	AO-Basis             = NONE
	Semicanonical        = false
	Reference            = UHF
	Print Level          = 1

	IRREP	# MOs	# FZDC	# DOCC	# SOCC	# VIRT	# FZVR
	-----	-----	------	------	------	------	------
	 A1	   35	    1	    2	    0	    32	    0
	 A2	   12	    0	    0	    0	    12	    0
	 B1	   18	    0	    1	    0	    17	    0
	 B2	   27	    0	    1	    0	    26	    0
	Transforming integrals...
	IWL integrals will be deleted.
	(OO|OO)...
	Presorting SO-basis two-electron integrals.
	Sorting File: SO Ints (nn|nn) nbuckets = 1
	Transforming the one-electron integrals and constructing Fock matrices
	Starting AA/AB first half-transformation.
	Sorting AA/AB half-transformed integrals.
	Starting BB first half-transformation.
	Sorting BB half-transformed integrals.
	First half integral transformation complete.
	Starting AA second half-transformation.
	Starting AB second half-transformation.
	Starting BB second half-transformation.
	Two-electron integral transformation complete.
	(OO|OV)...
	Starting AA second half-transformation.
	Starting AB second half-transformation.
	Starting BB second half-transformation.
	Two-electron integral transformation complete.
	(OO|VV)...
	Starting AA second half-transformation.
	Starting AB second half-transformation.
	Starting BB second half-transformation.
	Two-electron integral transformation complete.
	(OV|OO)...
	Starting AA/AB first half-transformation.
	Sorting AA/AB half-transformed integrals.
	Starting BB first half-transformation.
	Sorting BB half-transformed integrals.
	First half integral transformation complete.
	Starting AA second half-transformation.
	Starting AB second half-transformation.
	Starting BB second half-transformation.
	Two-electron integral transformation complete.
	(OV|OV)...
	Starting AA second half-transformation.
	Starting AB second half-transformation.
	Starting BB second half-transformation.
	Two-electron integral transformation complete.
	(OV|VV)...
	Starting AA second half-transformation.
	Starting AB second half-transformation.
	Starting BB second half-transformation.
	Two-electron integral transformation complete.
	(VV|OO)...
	Starting AA/AB first half-transformation.
	Sorting AA/AB half-transformed integrals.
	Starting BB first half-transformation.
	Sorting BB half-transformed integrals.
	First half integral transformation complete.
	Starting AA second half-transformation.
	Starting AB second half-transformation.
	Starting BB second half-transformation.
	Two-electron integral transformation complete.
	(VV|OV)...
	Starting AA second half-transformation.
	Starting AB second half-transformation.
	Starting BB second half-transformation.
	Two-electron integral transformation complete.
	(VV|VV)...
	Starting AA second half-transformation.
	Starting AB second half-transformation.
	Starting BB second half-transformation.
	Two-electron integral transformation complete.
	Frozen core energy     =    -61.31053712515808

	Size of irrep 0 of <AB|CD> integrals:      1.047 (MW) /      8.372 (MB)
	Size of irrep 1 of <AB|CD> integrals:      0.682 (MW) /      5.458 (MB)
	Size of irrep 2 of <AB|CD> integrals:      0.733 (MW) /      5.862 (MB)
	Size of irrep 3 of <AB|CD> integrals:      1.073 (MW) /      8.586 (MB)
	Total:                                     3.535 (MW) /     28.279 (MB)

	Size of irrep 0 of <ab|cd> integrals:      1.047 (MW) /      8.372 (MB)
	Size of irrep 1 of <ab|cd> integrals:      0.682 (MW) /      5.458 (MB)
	Size of irrep 2 of <ab|cd> integrals:      0.733 (MW) /      5.862 (MB)
	Size of irrep 3 of <ab|cd> integrals:      1.073 (MW) /      8.586 (MB)
	Total:                                     3.535 (MW) /     28.279 (MB)

	Size of irrep 0 of <Ab|Cd> integrals:      4.550 (MW) /     36.398 (MB)
	Size of irrep 1 of <Ab|Cd> integrals:      2.729 (MW) /     21.833 (MB)
	Size of irrep 2 of <Ab|Cd> integrals:      2.931 (MW) /     23.448 (MB)
	Size of irrep 3 of <Ab|Cd> integrals:      4.293 (MW) /     34.345 (MB)
	Total:                                    14.503 (MW) /    116.023 (MB)

	Size of irrep 0 of <IA|BC> integrals:      0.228 (MW) /      1.826 (MB)
	Size of irrep 1 of <IA|BC> integrals:      0.111 (MW) /      0.885 (MB)
	Size of irrep 2 of <IA|BC> integrals:      0.134 (MW) /      1.068 (MB)
	Size of irrep 3 of <IA|BC> integrals:      0.199 (MW) /      1.591 (MB)
	Total:                                     0.671 (MW) /      5.371 (MB)

	Size of irrep 0 of <ia|bc> integrals:      0.228 (MW) /      1.826 (MB)
	Size of irrep 1 of <ia|bc> integrals:      0.111 (MW) /      0.885 (MB)
	Size of irrep 2 of <ia|bc> integrals:      0.134 (MW) /      1.068 (MB)
	Size of irrep 3 of <ia|bc> integrals:      0.199 (MW) /      1.591 (MB)
	Total:                                     0.671 (MW) /      5.371 (MB)

	Size of irrep 0 of <Ia|Bc> integrals:      0.228 (MW) /      1.826 (MB)
	Size of irrep 1 of <Ia|Bc> integrals:      0.111 (MW) /      0.885 (MB)
	Size of irrep 2 of <Ia|Bc> integrals:      0.134 (MW) /      1.068 (MB)
	Size of irrep 3 of <Ia|Bc> integrals:      0.199 (MW) /      1.591 (MB)
	Total:                                     0.671 (MW) /      5.371 (MB)

	Size of irrep 0 of <iA|bC> integrals:      0.228 (MW) /      1.826 (MB)
	Size of irrep 1 of <iA|bC> integrals:      0.111 (MW) /      0.885 (MB)
	Size of irrep 2 of <iA|bC> integrals:      0.134 (MW) /      1.068 (MB)
	Size of irrep 3 of <iA|bC> integrals:      0.199 (MW) /      1.591 (MB)
	Total:                                     0.671 (MW) /      5.371 (MB)

	Size of irrep 0 of tIjAb amplitudes:       0.013 (MW) /      0.102 (MB)
	Size of irrep 1 of tIjAb amplitudes:       0.003 (MW) /      0.026 (MB)
	Size of irrep 2 of tIjAb amplitudes:       0.007 (MW) /      0.055 (MB)
	Size of irrep 3 of tIjAb amplitudes:       0.008 (MW) /      0.066 (MB)
	Total:                                     0.031 (MW) /      0.250 (MB)

	Nuclear Rep. energy          =      9.16896316548277
	SCF energy                   =    -76.06042075810471
	One-electron energy          =    -41.51130804892230
	Two-electron (AA) energy     =      3.41971735180487
	Two-electron (BB) energy     =      3.41971735180487
	Two-electron (AB) energy     =     10.75302654688273
	Two-electron energy          =     17.59246125049246
	Reference energy             =    -76.06042075810514

*** tstop() called on c2-24.compute.lan at Mon Mar  8 09:43:00 2021
Module time:
	user time   =      75.03 seconds =       1.25 minutes
	system time =       4.23 seconds =       0.07 minutes
	total time  =          8 seconds =       0.13 minutes
Total time:
	user time   =      92.75 seconds =       1.55 minutes
	system time =       5.22 seconds =       0.09 minutes
	total time  =         11 seconds =       0.18 minutes
            **************************
            *                        *
            *        CCENERGY        *
            *                        *
            **************************

    Nuclear Rep. energy (wfn)     =    9.168963165482774
    SCF energy          (wfn)     =  -76.060420758104712
    Reference energy    (file100) =  -76.060420758105138

    Input parameters:
    -----------------
    Wave function   =     CCSD_T
    Reference wfn   =     UHF
    Brueckner       =     No
    Memory (Mbytes) =     4000.0
    Maxiter         =     50
    R_Convergence   =     1.0e-10
    E_Convergence   =     1.0e-10
    Restart         =     Yes
    DIIS            =     Yes
    AO Basis        =     NONE
    ABCD            =     NEW
    Cache Level     =     2
    Cache Type      =     LRU
    Print Level     =     1
    Num. of threads =     12
    # Amps to Print =     10
    Print MP2 Amps? =     No
    Analyze T2 Amps =     No
    Print Pair Ener =     No
    Local CC        =     No
    SCS-MP2         =     False
    SCSN-MP2        =     False
    SCS-CCSD        =     False

MP2 correlation energy -0.2685653474827603
                Solving CC Amplitude Equations
                ------------------------------
  Iter             Energy              RMS        T1Diag      D1Diag    New D1Diag    D2Diag
  ----     ---------------------    ---------   ----------  ----------  ----------   --------
     0        -0.268565347482760    0.000e+00    0.000000    0.000000    0.000000    0.000000
     1        -0.267095769584255    4.757e-02    0.012074    0.000000    0.000000    0.000000
     2        -0.272153639970890    1.309e-02    0.011851    0.000000    0.000000    0.000000
     3        -0.273367807035479    6.151e-03    0.013697    0.000000    0.000000    0.000000
     4        -0.273263482692758    1.237e-03    0.014019    0.000000    0.000000    0.000000
     5        -0.273247166487738    4.558e-04    0.014151    0.000000    0.000000    0.000000
     6        -0.273248050368606    1.136e-04    0.014180    0.000000    0.000000    0.000000
     7        -0.273246841057686    3.841e-05    0.014186    0.000000    0.000000    0.000000
     8        -0.273246881241926    1.050e-05    0.014188    0.000000    0.000000    0.000000
     9        -0.273246928793362    3.234e-06    0.014189    0.000000    0.000000    0.000000
    10        -0.273246809238996    1.308e-06    0.014189    0.000000    0.000000    0.000000
    11        -0.273246826843678    4.507e-07    0.014189    0.000000    0.000000    0.000000
    12        -0.273246821948267    1.682e-07    0.014189    0.000000    0.000000    0.000000
    13        -0.273246823705326    4.957e-08    0.014189    0.000000    0.000000    0.000000
    14        -0.273246824893242    1.317e-08    0.014189    0.000000    0.000000    0.000000
    15        -0.273246824941727    4.030e-09    0.014189    0.000000    0.000000    0.000000
    16        -0.273246824942372    1.233e-09    0.014189    0.000000    0.000000    0.000000
    17        -0.273246824950642    4.238e-10    0.014189    0.000000    0.000000    0.000000
    18        -0.273246824947507    1.096e-10    0.014189    0.000000    0.000000    0.000000
    19        -0.273246824947100    3.298e-11    0.014189    0.000000    0.000000    0.000000

    Iterations converged.

    Largest TIA Amplitudes:
              2  44        -0.0150675357
              2  45        -0.0129985340
              1   1         0.0085196801
              1   4        -0.0078214001
              3  73         0.0054256122
              2  54         0.0042739367
              3  69         0.0037808864
              2  47        -0.0036796484
              3  80         0.0035862940
              1  23         0.0033917435

    Largest Tia Amplitudes:
              2  44        -0.0150675357
              2  45        -0.0129985340
              1   1         0.0085196801
              1   4        -0.0078214001
              3  73         0.0054256122
              2  54         0.0042739367
              3  69         0.0037808864
              2  47        -0.0036796484
              3  80         0.0035862940
              1  23         0.0033917435

    Largest TIJAB Amplitudes:
      2   1  46   7        -0.0095620316
      3   1  66   6        -0.0093806220

      * MP2 total energy                      =  -76.328986105587902
      * CCSD total energy                     =  -76.333667583052232
      * CCSD(T) total energy                     =  -76.342319333882898
*** Psi4 exiting successfully. Buy a developer a beer!
