                               Psi4 1.3.2 release

  ==> Input File <==

--------------------------------------------------------------------------
memory 4 GB

molecule  {
0 3
O   -1.519781476630   -0.028215155356    0.000000000000
H   -0.556983962530   -0.003535423656    0.000000000000
H   -1.778251308136    0.896234234945    0.000000000000
O    1.666922528514   -0.028032985359    0.000000000000
}
set {
basis aug-cc-pvtz
reference uhf
e_convergence 10
scf_type pk
freeze_core true
}

set ccenergy {
e_convergence 10
r_convergence 10
}

e = energy('ccsd(t)')

print_out('Stephenergy {}'.format(e))

--------------------------------------------------------------------------

    Molecular point group: cs

    Geometry (in Angstrom), charge = 0, multiplicity = 3:

       Center              X                  Y                   Z               Mass
    ------------   -----------------  -----------------  -----------------  -----------------
         O           -1.519781476630    -0.028215155356     0.000000000000    15.994914619570
         H           -0.556983962530    -0.003535423656     0.000000000000     1.007825032230
         H           -1.778251308136     0.896234234945     0.000000000000     1.007825032230
         O            1.666922528514    -0.028032985359     0.000000000000    15.994914619570

  Charge       = 0
  Multiplicity = 3
  Basis Set: AUG-CC-PVTZ
    Blend: AUG-CC-PVTZ

    Orbital Energies [Eh]
    ---------------------

    Alpha Occupied:

       1Ap   -20.734970     2Ap   -20.558401     3Ap    -1.444298
       4Ap    -1.343141     5Ap    -0.734832     1App   -0.734679
       6Ap    -0.709645     7Ap    -0.636937     8Ap    -0.575027
       2App   -0.501681

    Alpha Virtual:

       9Ap     0.034589    10Ap     0.053281    11Ap     0.127496
       3App    0.131549    12Ap     0.148056    13Ap     0.161235
      14Ap     0.183498     4App    0.186296    15Ap     0.211714
      16Ap     0.241661    17Ap     0.271923     5App    0.282647
      18Ap     0.293629     6App    0.323291    19Ap     0.372163
      20Ap     0.393221    21Ap     0.460445    22Ap     0.559228
       7App    0.600089    23Ap     0.608712    24Ap     0.643374
      25Ap     0.669072    26Ap     0.712165     8App    0.713122
       9App    0.734707    10App    0.747398    27Ap     0.766026
      28Ap     0.798101    11App    0.824794    29Ap     0.852063
      30Ap     0.865849    12App    0.883640    31Ap     0.923361
      13App    0.942073    32Ap     0.944605    33Ap     0.956645
      14App    0.983808    34Ap     0.985917    35Ap     1.043898
      36Ap     1.128078    37Ap     1.169101    15App    1.177905
      38Ap     1.194036    16App    1.261326    39Ap     1.272697
      40Ap     1.324703    17App    1.528851    41Ap     1.555501
      18App    1.600870    42Ap     1.690509    43Ap     1.820233
      44Ap     1.827322    19App    1.975590    45Ap     1.975626
      46Ap     1.996361    20App    2.011225    47Ap     2.017871
      21App    2.048769    48Ap     2.061158    22App    2.122965
      49Ap     2.165010    50Ap     2.166548    23App    2.211607
      24App    2.295329    51Ap     2.302747    52Ap     2.328855
      53Ap     2.415133    25App    2.449998    54Ap     2.462391
      26App    2.524517    55Ap     2.535997    56Ap     2.632282
      57Ap     2.670807    27App    2.728782    58Ap     2.751035
      59Ap     2.865850    60Ap     2.941778    28App    2.946859
      61Ap     3.700973    62Ap     3.894681    29App    4.037041
      30App    4.058610    63Ap     4.076281    31App    4.173249
      64Ap     4.199762    65Ap     4.275963    32App    4.297765
      66Ap     4.376966    33App    4.393702    67Ap     4.436056
      34App    4.441040    68Ap     4.579497    69Ap     4.785403
      70Ap     4.965150    35App    5.156860    71Ap     5.184520
      72Ap     5.306771    73Ap     5.377113    36App    5.529873
      74Ap     5.689907    75Ap     6.199952    37App    6.310215
      76Ap     6.310258    38App    6.372967    77Ap     6.375695
      39App    6.520920    78Ap     6.526335    79Ap     6.556772
      80Ap     6.635675    40App    6.725113    81Ap     6.812409
      41App    6.818485    82Ap     6.916824    42App    6.933923
      83Ap     6.967633    84Ap     7.049715    43App    7.147908
      44App    7.276128    85Ap     7.323284    45App    7.329469
      86Ap     7.360550    46App    7.441865    87Ap     7.659874
      88Ap     7.946774    89Ap     7.969608    90Ap     8.815903
      91Ap     9.399566    92Ap    16.548431

    Beta Occupied:

       1Ap   -20.656190     2Ap   -20.558542     3Ap    -1.343747
       4Ap    -1.101847     5Ap    -0.708641     6Ap    -0.581551
       7Ap    -0.542200     1App   -0.501736

    Beta Virtual:

       8Ap     0.034239     9Ap     0.046171     2App    0.047642
      10Ap     0.057496    11Ap     0.144212    12Ap     0.151017
       3App    0.160449    13Ap     0.179880    14Ap     0.210135
      15Ap     0.218083     4App    0.225914    16Ap     0.251314
      17Ap     0.273896     5App    0.282981    18Ap     0.295857
       6App    0.327045    19Ap     0.375987    20Ap     0.404002
      21Ap     0.461180    22Ap     0.562208     7App    0.632402
      23Ap     0.639008    24Ap     0.646428    25Ap     0.672126
      26Ap     0.712829     8App    0.726913     9App    0.735856
      10App    0.748853    27Ap     0.784987    28Ap     0.810624
      29Ap     0.857091    11App    0.867817    30Ap     0.918648
      12App    0.936129    31Ap     0.944085    13App    0.949536
      32Ap     0.954394    33Ap     0.973611    34Ap     1.016094
      14App    1.024960    35Ap     1.047899    36Ap     1.154885
      37Ap     1.176774    15App    1.181228    38Ap     1.219060
      16App    1.272434    39Ap     1.274861    40Ap     1.335474
      17App    1.529698    41Ap     1.561121    18App    1.602480
      42Ap     1.717505    43Ap     1.825714    44Ap     1.834597
      45Ap     2.004019    19App    2.013689    46Ap     2.013893
      20App    2.053347    47Ap     2.066173    21App    2.170869
      48Ap     2.179553    22App    2.179674    49Ap     2.204476
      50Ap     2.229091    23App    2.249092    24App    2.297258
      51Ap     2.317858    52Ap     2.343600    53Ap     2.422306
      25App    2.452429    54Ap     2.463193    26App    2.533155
      55Ap     2.543249    56Ap     2.638472    57Ap     2.681946
      27App    2.729951    58Ap     2.758043    59Ap     2.870409
      60Ap     2.944600    28App    2.947544    61Ap     3.701423
      62Ap     3.897560    29App    4.037277    30App    4.146638
      63Ap     4.179388    64Ap     4.244222    31App    4.255138
      65Ap     4.297034    32App    4.298107    66Ap     4.391011
      33App    4.393889    34App    4.442552    67Ap     4.467851
      68Ap     4.580469    69Ap     4.786782    70Ap     4.967431
      35App    5.156846    71Ap     5.185044    72Ap     5.307002
      73Ap     5.378166    36App    5.529960    74Ap     5.690550
      75Ap     6.200417    37App    6.419172    76Ap     6.419197
      38App    6.448353    77Ap     6.451119    78Ap     6.532351
      39App    6.575833    79Ap     6.606891    80Ap     6.681739
      40App    6.729474    81Ap     6.919553    41App    7.004509
      82Ap     7.005587    42App    7.042181    83Ap     7.071663
      84Ap     7.129963    43App    7.150235    44App    7.276608
      85Ap     7.323450    45App    7.330277    86Ap     7.361015
      46App    7.442307    87Ap     7.661145    88Ap     7.947196
      89Ap     7.969736    90Ap     8.818412    91Ap     9.474060
      92Ap    16.548992

    Final Occupation by Irrep:
             Ap   App
    DOCC [     7,    1 ]
    SOCC [     1,    1 ]

  @UHF Final Energy:  -150.87443831527398

   => Energetics <=

    Nuclear Repulsion Energy =             22.8726675148528962
    One-Electron Energy =                -253.5261470020551258
    Two-Electron Energy =                  79.7790411719282417
    Total Energy =                       -150.8744383152739772

  UHF NO Occupations:
  HONO-2 :    7 Ap 1.9970292
  HONO-1 :    2App 1.0000000
  HONO-0 :    8 Ap 1.0000000
  LUNO+0 :    9 Ap 0.0029708
  LUNO+1 :   10 Ap 0.0017125
  LUNO+2 :   11 Ap 0.0000024
  LUNO+3 :   12 Ap 0.0000019

Computation Completed

Properties will be evaluated at   0.000000,   0.000000,   0.000000 [a0]

Properties computed using the SCF density matrix

  Nuclear Dipole Moment: [e a0]
     X:    -2.1885      Y:     0.8366      Z:     0.0000

  Electronic Dipole Moment: [e a0]
     X:     2.7512      Y:    -0.2163      Z:     0.0000

  Dipole Moment: [e a0]
     X:     0.5627      Y:     0.6203      Z:     0.0000     Total:     0.8375

  Dipole Moment: [D]
     X:     1.4301      Y:     1.5766      Z:     0.0000     Total:     2.1286

*** tstop() called on d3-17.compute.lan at Tue Mar  9 15:13:36 2021
Module time:
	user time   =      51.80 seconds =       0.86 minutes
	system time =       2.25 seconds =       0.04 minutes
	total time  =          6 seconds =       0.10 minutes
Total time:
	user time   =      51.80 seconds =       0.86 minutes
	system time =       2.25 seconds =       0.04 minutes
	total time  =          6 seconds =       0.10 minutes
 MINTS: Wrapper to libmints.
   by Justin Turney

   Calculation information:
      Number of threads:                12
      Number of atoms:                   4
      Number of AO shells:              46
      Number of SO shells:              46
      Number of primitives:             82
      Number of atomic orbitals:       160
      Number of basis functions:       138

      Number of irreps:                  2
      Integral cutoff                 0.00e+00
      Number of functions per irrep: [  92   46 ]

 OEINTS: Overlap, kinetic, potential, dipole, and quadrupole integrals
         stored in file 35.

      Computing two-electron integrals...done
      Computed 22931559 non-zero two-electron integrals.
        Stored in file 33.

*** tstart() called on d3-17.compute.lan
*** at Tue Mar  9 15:13:40 2021

	Wfn Parameters:
	--------------------
	Wavefunction         = CCSD_T
	Number of irreps     = 2
	Number of MOs        = 138
	Number of active MOs = 136
	AO-Basis             = NONE
	Semicanonical        = false
	Reference            = UHF
	Print Level          = 1

	IRREP	# MOs	# FZDC	# DOCC	# SOCC	# VIRT	# FZVR
	-----	-----	------	------	------	------	------
	 Ap	   92	    2	    5	    1	    84	    0
	 App	   46	    0	    1	    1	    44	    0
	Transforming integrals...
	IWL integrals will be deleted.
	(OO|OO)...
	Presorting SO-basis two-electron integrals.
	Sorting File: SO Ints (nn|nn) nbuckets = 1
	Transforming the one-electron integrals and constructing Fock matrices
	Starting AA/AB first half-transformation.
	Sorting AA/AB half-transformed integrals.
	Starting BB first half-transformation.
	Sorting BB half-transformed integrals.
	First half integral transformation complete.
	Starting AA second half-transformation.
	Starting AB second half-transformation.
	Starting BB second half-transformation.
	Two-electron integral transformation complete.
	(OO|OV)...
	Starting AA second half-transformation.
	Starting AB second half-transformation.
	Starting BB second half-transformation.
	Two-electron integral transformation complete.
	(OO|VV)...
	Starting AA second half-transformation.
	Starting AB second half-transformation.
	Starting BB second half-transformation.
	Two-electron integral transformation complete.
	(OV|OO)...
	Starting AA/AB first half-transformation.
	Sorting AA/AB half-transformed integrals.
	Starting BB first half-transformation.
	Sorting BB half-transformed integrals.
	First half integral transformation complete.
	Starting AA second half-transformation.
	Starting AB second half-transformation.
	Starting BB second half-transformation.
	Two-electron integral transformation complete.
	(OV|OV)...
	Starting AA second half-transformation.
	Starting AB second half-transformation.
	Starting BB second half-transformation.
	Two-electron integral transformation complete.
	(OV|VV)...
	Starting AA second half-transformation.
	Starting AB second half-transformation.
	Starting BB second half-transformation.
	Two-electron integral transformation complete.
	(VV|OO)...
	Starting AA/AB first half-transformation.
	Sorting AA/AB half-transformed integrals.
	Starting BB first half-transformation.
	Sorting BB half-transformed integrals.
	First half integral transformation complete.
	Starting AA second half-transformation.
	Starting AB second half-transformation.
	Starting BB second half-transformation.
	Two-electron integral transformation complete.
	(VV|OV)...
	Starting AA second half-transformation.
	Starting AB second half-transformation.
	Starting BB second half-transformation.
	Two-electron integral transformation complete.
	(VV|VV)...
	Starting AA second half-transformation.
	Starting AB second half-transformation.
	Starting BB second half-transformation.
	Two-electron integral transformation complete.
	Frozen core energy     =   -125.83461932805795

	Size of irrep 0 of <AB|CD> integrals:     19.643 (MW) /    157.141 (MB)
	Size of irrep 1 of <AB|CD> integrals:     13.660 (MW) /    109.283 (MB)
	Total:                                    33.303 (MW) /    266.424 (MB)

	Size of irrep 0 of <ab|cd> integrals:     20.794 (MW) /    166.349 (MB)
	Size of irrep 1 of <ab|cd> integrals:     14.631 (MW) /    117.045 (MB)
	Total:                                    35.424 (MW) /    283.394 (MB)

	Size of irrep 0 of <Ab|Cd> integrals:     83.174 (MW) /    665.395 (MB)
	Size of irrep 1 of <Ab|Cd> integrals:     56.550 (MW) /    452.403 (MB)
	Total:                                   139.725 (MW) /   1117.798 (MB)

	Size of irrep 0 of <IA|BC> integrals:      5.323 (MW) /     42.586 (MB)
	Size of irrep 1 of <IA|BC> integrals:      3.193 (MW) /     25.547 (MB)
	Total:                                     8.517 (MW) /     68.133 (MB)

	Size of irrep 0 of <ia|bc> integrals:      4.348 (MW) /     34.780 (MB)
	Size of irrep 1 of <ia|bc> integrals:      2.372 (MW) /     18.972 (MB)
	Total:                                     6.719 (MW) /     53.752 (MB)

	Size of irrep 0 of <Ia|Bc> integrals:      5.472 (MW) /     43.776 (MB)
	Size of irrep 1 of <Ia|Bc> integrals:      3.309 (MW) /     26.470 (MB)
	Total:                                     8.781 (MW) /     70.246 (MB)

	Size of irrep 0 of <iA|bC> integrals:      4.232 (MW) /     33.853 (MB)
	Size of irrep 1 of <iA|bC> integrals:      2.286 (MW) /     18.289 (MB)
	Total:                                     6.518 (MW) /     52.142 (MB)

	Size of irrep 0 of tIjAb amplitudes:       0.292 (MW) /      2.335 (MB)
	Size of irrep 1 of tIjAb amplitudes:       0.120 (MW) /      0.963 (MB)
	Total:                                     0.412 (MW) /      3.297 (MB)

	Nuclear Rep. energy          =     22.87266751485290
	SCF energy                   =   -150.87443831527398
	One-electron energy          =    -84.36501086864703
	Two-electron (AA) energy     =     10.12755624111202
	Two-electron (BB) energy     =      5.38906199174058
	Two-electron (AB) energy     =     20.93590613372330
	Two-electron energy          =     36.45252436657591
	Reference energy             =   -150.87443831527617

*** tstop() called on d3-17.compute.lan at Tue Mar  9 15:14:31 2021
Module time:
	user time   =     327.57 seconds =       5.46 minutes
	system time =      24.67 seconds =       0.41 minutes
	total time  =         51 seconds =       0.85 minutes
Total time:
	user time   =     386.73 seconds =       6.45 minutes
	system time =      27.82 seconds =       0.46 minutes
	total time  =         61 seconds =       1.02 minutes
            **************************
            *                        *
            *        CCENERGY        *
            *                        *
            **************************

    Nuclear Rep. energy (wfn)     =   22.872667514852896
    SCF energy          (wfn)     = -150.874438315273977
    Reference energy    (file100) = -150.874438315276166

    Input parameters:
    -----------------
    Wave function   =     CCSD_T
    Reference wfn   =     UHF
    Brueckner       =     No
    Memory (Mbytes) =     4000.0
    Maxiter         =     50
    R_Convergence   =     1.0e-10
    E_Convergence   =     1.0e-10
    Restart         =     Yes
    DIIS            =     Yes
    AO Basis        =     NONE
    ABCD            =     NEW
    Cache Level     =     2
    Cache Type      =     LRU
    Print Level     =     1
    Num. of threads =     12
    # Amps to Print =     10
    Print MP2 Amps? =     No
    Analyze T2 Amps =     No
    Print Pair Ener =     No
    Local CC        =     No
    SCS-MP2         =     False
    SCSN-MP2        =     False
    SCS-CCSD        =     False

MP2 correlation energy -0.4165630303128607
                Solving CC Amplitude Equations
                ------------------------------
  Iter             Energy              RMS        T1Diag      D1Diag    New D1Diag    D2Diag
  ----     ---------------------    ---------   ----------  ----------  ----------   --------
     0        -0.416563030312861    0.000e+00    0.000000    0.000000    0.000000    0.000000
     1        -0.427302623556776    5.681e-02    0.010535    0.000000    0.000000    0.000000
     2        -0.435391137149976    1.686e-02    0.011024    0.000000    0.000000    0.000000
     3        -0.437504578039040    8.563e-03    0.012893    0.000000    0.000000    0.000000
     4        -0.437379435865782    2.533e-03    0.013260    0.000000    0.000000    0.000000
     5        -0.437364383145505    1.326e-03    0.013418    0.000000    0.000000    0.000000
     6        -0.437391693363930    5.161e-04    0.013441    0.000000    0.000000    0.000000
     7        -0.437396505932165    2.677e-04    0.013436    0.000000    0.000000    0.000000
     8        -0.437397070853577    9.667e-05    0.013431    0.000000    0.000000    0.000000
     9        -0.437398473931958    6.933e-05    0.013432    0.000000    0.000000    0.000000
    10        -0.437396916379856    5.793e-05    0.013433    0.000000    0.000000    0.000000
    11        -0.437397046826547    5.467e-05    0.013434    0.000000    0.000000    0.000000
    12        -0.437396847024971    5.294e-05    0.013436    0.000000    0.000000    0.000000
    13        -0.437396836179920    5.199e-05    0.013438    0.000000    0.000000    0.000000
    14        -0.437397752534166    5.070e-05    0.013448    0.000000    0.000000    0.000000
    15        -0.437398086427988    4.631e-05    0.013494    0.000000    0.000000    0.000000
    16        -0.437397857252887    3.342e-05    0.013611    0.000000    0.000000    0.000000
    17        -0.437397559270903    1.695e-05    0.013683    0.000000    0.000000    0.000000
    18        -0.437397413116773    7.970e-06    0.013703    0.000000    0.000000    0.000000
    19        -0.437397659502397    3.509e-06    0.013709    0.000000    0.000000    0.000000
    20        -0.437397777401690    1.550e-06    0.013710    0.000000    0.000000    0.000000
    21        -0.437397784348303    6.189e-07    0.013710    0.000000    0.000000    0.000000
    22        -0.437397785428562    2.830e-07    0.013710    0.000000    0.000000    0.000000
    23        -0.437397784703254    1.429e-07    0.013710    0.000000    0.000000    0.000000
    24        -0.437397783898983    5.526e-08    0.013710    0.000000    0.000000    0.000000
    25        -0.437397784801677    2.750e-08    0.013710    0.000000    0.000000    0.000000
    26        -0.437397785239602    1.936e-08    0.013710    0.000000    0.000000    0.000000
    27        -0.437397785373291    1.767e-08    0.013710    0.000000    0.000000    0.000000
    28        -0.437397785350447    1.706e-08    0.013710    0.000000    0.000000    0.000000
    29        -0.437397785256131    1.665e-08    0.013710    0.000000    0.000000    0.000000
    30        -0.437397785067861    1.615e-08    0.013710    0.000000    0.000000    0.000000
    31        -0.437397785090275    1.463e-08    0.013710    0.000000    0.000000    0.000000
    32        -0.437397785340937    9.443e-09    0.013710    0.000000    0.000000    0.000000
    33        -0.437397785437865    4.405e-09    0.013710    0.000000    0.000000    0.000000
    34        -0.437397785498944    1.865e-09    0.013710    0.000000    0.000000    0.000000
    35        -0.437397785506722    7.277e-10    0.013710    0.000000    0.000000    0.000000
    36        -0.437397785506199    2.933e-10    0.013710    0.000000    0.000000    0.000000

      * MP2 total energy                      = -151.291001345589024
      * CCSD total energy                     = -151.311836100781591
      * CCSD(T) total energy                     = -151.324188062765103
*** Psi4 exiting successfully. Buy a developer a beer!
