                               Psi4 1.3.2 release

  ==> Input File <==

--------------------------------------------------------------------------
memory 4 GB

molecule  {
0 3
O    0.000000000000    0.000000000000    1.270651846401
H    0.000000000000   -0.759829054300    1.859120323927
H   -0.000000000000    0.759829054300    1.859120323927
O    0.000000000000    0.000000000000   -1.504934810073
}
set {
basis aug-cc-pvtz
reference uhf
e_convergence 10
scf_type pk
freeze_core true
}

set ccenergy {
e_convergence 10
r_convergence 10
}

e = energy('ccsd(t)')

print_out('Stephenergy {}'.format(e))

--------------------------------------------------------------------------

    Molecular point group: c2v

    Geometry (in Angstrom), charge = 0, multiplicity = 3:

       Center              X                  Y                   Z               Mass
    ------------   -----------------  -----------------  -----------------  -----------------
         O            0.000000000000     0.000000000000     1.270651846401    15.994914619570
         H            0.000000000000    -0.759829054300     1.859120323927     1.007825032230
         H           -0.000000000000     0.759829054300     1.859120323927     1.007825032230
         O            0.000000000000     0.000000000000    -1.504934810073    15.994914619570

  Charge       = 0
  Multiplicity = 3
  Basis Set: AUG-CC-PVTZ
    Blend: AUG-CC-PVTZ

    Orbital Energies [Eh]
    ---------------------

    Alpha Occupied:

       1A1   -20.684551     2A1   -20.571062     3A1    -1.393968
       4A1    -1.355496     1B2    -0.719181     5A1    -0.688205
       1B1    -0.685271     6A1    -0.586394     2B2    -0.586281
       2B1    -0.513985

    Alpha Virtual:

       7A1     0.029566     3B2     0.047670     8A1     0.118600
       3B1     0.154014     9A1     0.159506     4B2     0.180295
       5B2     0.186897     4B1     0.192727    10A1     0.197989
       1A2     0.263685     6B2     0.264105    11A1     0.264736
      12A1     0.314380     5B1     0.326822    13A1     0.376063
       7B2     0.380333    14A1     0.450064     8B2     0.464442
       9B2     0.600049     6B1     0.643528    15A1     0.647370
       2A2     0.658161    16A1     0.666546    17A1     0.696014
       3A2     0.721608    10B2     0.722485     7B1     0.767515
      18A1     0.792868    19A1     0.818541     8B1     0.837784
      20A1     0.861073     9B1     0.901244    11B2     0.918683
       4A2     0.924739    12B2     0.946243    13B2     0.979665
      21A1     0.989915    10B1     1.012501    22A1     1.046504
      14B2     1.051500    11B1     1.122052     5A2     1.176759
      23A1     1.191692    15B2     1.198655    16B2     1.326668
      24A1     1.336283    25A1     1.443268     6A2     1.507472
      12B1     1.594495    26A1     1.666657    27A1     1.812017
      17B2     1.821776    18B2     1.977661    28A1     2.040756
      13B1     2.047743    19B2     2.054035     7A2     2.056699
      14B1     2.058901    29A1     2.079247    30A1     2.114883
       8A2     2.118657    20B2     2.135125    31A1     2.140635
      15B1     2.145082    32A1     2.252033    21B2     2.266958
      16B1     2.303366     9A2     2.311990    17B1     2.433917
      33A1     2.469789    22B2     2.481847    34A1     2.486224
      35A1     2.695738    18B1     2.715880    23B2     2.720891
      36A1     2.839684    24B2     2.862807    10A2     2.880379
      25B2     3.691346    37A1     3.754593    11A2     4.013301
      19B1     4.080024    20B1     4.099291    38A1     4.140848
      26B2     4.183260    27B2     4.281348    21B1     4.290494
      39A1     4.350965    12A2     4.381914    40A1     4.427971
      22B1     4.451285    28B2     4.515163    41A1     4.788587
      29B2     4.840420    30B2     5.141500    13A2     5.145788
      31B2     5.249765    42A1     5.341688    23B1     5.517170
      43A1     5.685690    44A1     6.198355    24B1     6.388881
      45A1     6.408796    14A2     6.410101    32B2     6.423545
      25B1     6.435470    33B2     6.485456    46A1     6.535615
      34B2     6.581875    26B1     6.716140    27B1     6.902217
      47A1     6.905495    15A2     6.924480    48A1     6.939400
      35B2     6.985547    49A1     7.046485    28B1     7.135602
      29B1     7.278361    16A2     7.306819    36B2     7.311343
      17A2     7.352679    50A1     7.437502    51A1     7.543835
      52A1     7.910673    37B2     7.916456    38B2     8.806557
      53A1     8.859469    54A1    15.787364

    Beta Occupied:

       1A1   -20.605686     2A1   -20.570601     3A1    -1.354811
       4A1    -1.051163     1B2    -0.718854     5A1    -0.588111
       1B1    -0.513327     2B2    -0.495701

    Beta Virtual:

       6A1     0.029407     3B2     0.047751     2B1     0.086486
       7A1     0.091917     8A1     0.140924     9A1     0.167049
       3B1     0.170579     4B2     0.180920     5B2     0.190490
      10A1     0.225535     4B1     0.253267     1A2     0.263688
       6B2     0.264551    11A1     0.288380    12A1     0.316789
       5B1     0.328124     7B2     0.380505    13A1     0.386376
      14A1     0.451140     8B2     0.464636     9B2     0.601668
      15A1     0.660461     6B1     0.667335     2A2     0.672586
      16A1     0.673644    17A1     0.713245     3A2     0.722069
      10B2     0.734697     7B1     0.778782    18A1     0.806147
       8B1     0.846947    19A1     0.850757     4A2     0.925126
      20A1     0.927998    11B2     0.936408    12B2     0.953333
      13B2     0.983411     9B1     0.986596    21A1     0.997102
      14B2     1.052601    22A1     1.052651    10B1     1.060372
      11B1     1.138042     5A2     1.176955    23A1     1.193186
      15B2     1.201371    16B2     1.329067    24A1     1.392898
      25A1     1.482745     6A2     1.507889    12B1     1.596463
      26A1     1.696737    27A1     1.817031    17B2     1.822109
      18B2     1.979065    28A1     2.070311    13B1     2.070796
      19B2     2.071458     7A2     2.081337    29A1     2.099617
      14B1     2.100291    30A1     2.155828    20B2     2.180779
       8A2     2.201883    31A1     2.207632    15B1     2.258136
      32A1     2.308745     9A2     2.312122    21B2     2.318803
      16B1     2.319222    17B1     2.441739    33A1     2.483238
      22B2     2.484715    34A1     2.514390    35A1     2.703208
      18B1     2.717576    23B2     2.721794    36A1     2.851732
      24B2     2.862987    10A2     2.880412    25B2     3.692216
      37A1     3.754729    11A2     4.013329    19B1     4.082405
      38A1     4.173233    26B2     4.218848    20B1     4.259886
      27B2     4.292241    21B1     4.294949    12A2     4.382020
      39A1     4.426806    22B1     4.456405    40A1     4.467611
      28B2     4.515240    41A1     4.799337    29B2     4.840575
      30B2     5.141680    13A2     5.145862    31B2     5.250168
      42A1     5.342330    23B1     5.517279    43A1     5.690191
      44A1     6.200014    24B1     6.485577    14A2     6.486931
      32B2     6.487731    45A1     6.493032    25B1     6.499202
      33B2     6.521158    46A1     6.607290    34B2     6.609697
      26B1     6.722959    47A1     6.954676    15A2     7.038033
      48A1     7.041901    27B1     7.084797    35B2     7.097411
      28B1     7.135996    49A1     7.173897    29B1     7.282483
      16A2     7.307089    36B2     7.311527    17A2     7.353085
      50A1     7.440270    51A1     7.544893    52A1     7.911229
      37B2     7.916802    38B2     8.806926    53A1     8.938904
      54A1    15.787680

    Final Occupation by Irrep:
             A1    A2    B1    B2
    DOCC [     5,    0,    1,    2 ]
    SOCC [     1,    0,    1,    0 ]

  @UHF Final Energy:  -150.87357774162675

   => Energetics <=

    Nuclear Repulsion Energy =             23.8149968860915777
    One-Electron Energy =                -255.6945012683395930
    Two-Electron Energy =                  81.0059266406212544
    Total Energy =                       -150.8735777416267467

  UHF NO Occupations:
  HONO-2 :    5 A1 1.9970493
  HONO-1 :    6 A1 1.0000000
  HONO-0 :    2 B1 1.0000000
  LUNO+0 :    7 A1 0.0029507
  LUNO+1 :    3 B2 0.0017949
  LUNO+2 :    8 A1 0.0000215
  LUNO+3 :    9 A1 0.0000024

Computation Completed

Properties will be evaluated at   0.000000,   0.000000,   0.000000 [a0]

Properties computed using the SCF density matrix

  Nuclear Dipole Moment: [e a0]
     X:     0.0000      Y:     0.0000      Z:     3.4846

  Electronic Dipole Moment: [e a0]
     X:     0.0000      Y:     0.0000      Z:    -2.6490

  Dipole Moment: [e a0]
     X:     0.0000      Y:     0.0000      Z:     0.8356     Total:     0.8356

  Dipole Moment: [D]
     X:     0.0000      Y:     0.0000      Z:     2.1239     Total:     2.1239

*** tstop() called on c2-18.compute.lan at Mon Mar  8 17:44:52 2021
Module time:
	user time   =      39.91 seconds =       0.67 minutes
	system time =       1.99 seconds =       0.03 minutes
	total time  =          5 seconds =       0.08 minutes
Total time:
	user time   =      39.91 seconds =       0.67 minutes
	system time =       1.99 seconds =       0.03 minutes
	total time  =          5 seconds =       0.08 minutes
 MINTS: Wrapper to libmints.
   by Justin Turney

   Calculation information:
      Number of threads:                12
      Number of atoms:                   4
      Number of AO shells:              46
      Number of SO shells:              37
      Number of primitives:             82
      Number of atomic orbitals:       160
      Number of basis functions:       138

      Number of irreps:                  4
      Integral cutoff                 0.00e+00
      Number of functions per irrep: [  54   17   29   38 ]

 OEINTS: Overlap, kinetic, potential, dipole, and quadrupole integrals
         stored in file 35.

      Computing two-electron integrals...done
      Computed 11336418 non-zero two-electron integrals.
        Stored in file 33.

*** tstart() called on c2-18.compute.lan
*** at Mon Mar  8 17:44:55 2021

	Wfn Parameters:
	--------------------
	Wavefunction         = CCSD_T
	Number of irreps     = 4
	Number of MOs        = 138
	Number of active MOs = 136
	AO-Basis             = NONE
	Semicanonical        = false
	Reference            = UHF
	Print Level          = 1

	IRREP	# MOs	# FZDC	# DOCC	# SOCC	# VIRT	# FZVR
	-----	-----	------	------	------	------	------
	 A1	   54	    2	    3	    1	    48	    0
	 A2	   17	    0	    0	    0	    17	    0
	 B1	   29	    0	    1	    1	    27	    0
	 B2	   38	    0	    2	    0	    36	    0
	Transforming integrals...
	IWL integrals will be deleted.
	(OO|OO)...
	Presorting SO-basis two-electron integrals.
	Sorting File: SO Ints (nn|nn) nbuckets = 1
	Transforming the one-electron integrals and constructing Fock matrices
	Starting AA/AB first half-transformation.
	Sorting AA/AB half-transformed integrals.
	Starting BB first half-transformation.
	Sorting BB half-transformed integrals.
	First half integral transformation complete.
	Starting AA second half-transformation.
	Starting AB second half-transformation.
	Starting BB second half-transformation.
	Two-electron integral transformation complete.
	(OO|OV)...
	Starting AA second half-transformation.
	Starting AB second half-transformation.
	Starting BB second half-transformation.
	Two-electron integral transformation complete.
	(OO|VV)...
	Starting AA second half-transformation.
	Starting AB second half-transformation.
	Starting BB second half-transformation.
	Two-electron integral transformation complete.
	(OV|OO)...
	Starting AA/AB first half-transformation.
	Sorting AA/AB half-transformed integrals.
	Starting BB first half-transformation.
	Sorting BB half-transformed integrals.
	First half integral transformation complete.
	Starting AA second half-transformation.
	Starting AB second half-transformation.
	Starting BB second half-transformation.
	Two-electron integral transformation complete.
	(OV|OV)...
	Starting AA second half-transformation.
	Starting AB second half-transformation.
	Starting BB second half-transformation.
	Two-electron integral transformation complete.
	(OV|VV)...
	Starting AA second half-transformation.
	Starting AB second half-transformation.
	Starting BB second half-transformation.
	Two-electron integral transformation complete.
	(VV|OO)...
	Starting AA/AB first half-transformation.
	Sorting AA/AB half-transformed integrals.
	Starting BB first half-transformation.
	Sorting BB half-transformed integrals.
	First half integral transformation complete.
	Starting AA second half-transformation.
	Starting AB second half-transformation.
	Starting BB second half-transformation.
	Two-electron integral transformation complete.
	(VV|OV)...
	Starting AA second half-transformation.
	Starting AB second half-transformation.
	Starting BB second half-transformation.
	Two-electron integral transformation complete.
	(VV|VV)...
	Starting AA second half-transformation.
	Starting AB second half-transformation.
	Starting BB second half-transformation.
	Two-electron integral transformation complete.
	Frozen core energy     =   -126.36530849966390

	Size of irrep 0 of <AB|CD> integrals:      5.040 (MW) /     40.320 (MB)
	Size of irrep 1 of <AB|CD> integrals:      3.197 (MW) /     25.576 (MB)
	Size of irrep 2 of <AB|CD> integrals:      3.640 (MW) /     29.124 (MB)
	Size of irrep 3 of <AB|CD> integrals:      4.783 (MW) /     38.264 (MB)
	Total:                                    16.660 (MW) /    133.283 (MB)

	Size of irrep 0 of <ab|cd> integrals:      5.382 (MW) /     43.059 (MB)
	Size of irrep 1 of <ab|cd> integrals:      3.389 (MW) /     27.114 (MB)
	Size of irrep 2 of <ab|cd> integrals:      3.936 (MW) /     31.490 (MB)
	Size of irrep 3 of <ab|cd> integrals:      5.018 (MW) /     40.141 (MB)
	Total:                                    17.726 (MW) /    141.804 (MB)

	Size of irrep 0 of <Ab|Cd> integrals:     22.024 (MW) /    176.194 (MB)
	Size of irrep 1 of <Ab|Cd> integrals:     13.170 (MW) /    105.357 (MB)
	Size of irrep 2 of <Ab|Cd> integrals:     15.140 (MW) /    121.119 (MB)
	Size of irrep 3 of <Ab|Cd> integrals:     19.598 (MW) /    156.787 (MB)
	Total:                                    69.932 (MW) /    559.457 (MB)

	Size of irrep 0 of <IA|BC> integrals:      1.469 (MW) /     11.748 (MB)
	Size of irrep 1 of <IA|BC> integrals:      0.694 (MW) /      5.550 (MB)
	Size of irrep 2 of <IA|BC> integrals:      0.908 (MW) /      7.266 (MB)
	Size of irrep 3 of <IA|BC> integrals:      1.198 (MW) /      9.588 (MB)
	Total:                                     4.269 (MW) /     34.152 (MB)

	Size of irrep 0 of <ia|bc> integrals:      1.178 (MW) /      9.426 (MB)
	Size of irrep 1 of <ia|bc> integrals:      0.527 (MW) /      4.212 (MB)
	Size of irrep 2 of <ia|bc> integrals:      0.663 (MW) /      5.301 (MB)
	Size of irrep 3 of <ia|bc> integrals:      0.999 (MW) /      7.992 (MB)
	Total:                                     3.366 (MW) /     26.931 (MB)

	Size of irrep 0 of <Ia|Bc> integrals:      1.521 (MW) /     12.164 (MB)
	Size of irrep 1 of <Ia|Bc> integrals:      0.711 (MW) /      5.690 (MB)
	Size of irrep 2 of <Ia|Bc> integrals:      0.949 (MW) /      7.595 (MB)
	Size of irrep 3 of <Ia|Bc> integrals:      1.222 (MW) /      9.775 (MB)
	Total:                                     4.403 (MW) /     35.225 (MB)

	Size of irrep 0 of <iA|bC> integrals:      1.140 (MW) /      9.123 (MB)
	Size of irrep 1 of <iA|bC> integrals:      0.512 (MW) /      4.094 (MB)
	Size of irrep 2 of <iA|bC> integrals:      0.634 (MW) /      5.074 (MB)
	Size of irrep 3 of <iA|bC> integrals:      0.978 (MW) /      7.827 (MB)
	Total:                                     3.265 (MW) /     26.118 (MB)

	Size of irrep 0 of tIjAb amplitudes:       0.084 (MW) /      0.676 (MB)
	Size of irrep 1 of tIjAb amplitudes:       0.022 (MW) /      0.174 (MB)
	Size of irrep 2 of tIjAb amplitudes:       0.039 (MW) /      0.311 (MB)
	Size of irrep 3 of tIjAb amplitudes:       0.062 (MW) /      0.496 (MB)
	Total:                                     0.207 (MW) /      1.657 (MB)

	Nuclear Rep. energy          =     23.81499688609158
	SCF energy                   =   -150.87357774162675
	One-electron energy          =    -85.39578268739683
	Two-electron (AA) energy     =     10.36117660951252
	Two-electron (BB) energy     =      5.46579560021914
	Two-electron (AB) energy     =     21.24554434960946
	Two-electron energy          =     37.07251655934112
	Reference energy             =   -150.87357774162803

*** tstop() called on c2-18.compute.lan at Mon Mar  8 17:46:11 2021
Module time:
	user time   =     513.24 seconds =       8.55 minutes
	system time =      30.03 seconds =       0.50 minutes
	total time  =         76 seconds =       1.27 minutes
Total time:
	user time   =     559.19 seconds =       9.32 minutes
	system time =      32.62 seconds =       0.54 minutes
	total time  =         84 seconds =       1.40 minutes
            **************************
            *                        *
            *        CCENERGY        *
            *                        *
            **************************

    Nuclear Rep. energy (wfn)     =   23.814996886091578
    SCF energy          (wfn)     = -150.873577741626747
    Reference energy    (file100) = -150.873577741628026

    Input parameters:
    -----------------
    Wave function   =     CCSD_T
    Reference wfn   =     UHF
    Brueckner       =     No
    Memory (Mbytes) =     4000.0
    Maxiter         =     50
    R_Convergence   =     1.0e-10
    E_Convergence   =     1.0e-10
    Restart         =     Yes
    DIIS            =     Yes
    AO Basis        =     NONE
    ABCD            =     NEW
    Cache Level     =     2
    Cache Type      =     LRU
    Print Level     =     1
    Num. of threads =     12
    # Amps to Print =     10
    Print MP2 Amps? =     No
    Analyze T2 Amps =     No
    Print Pair Ener =     No
    Local CC        =     No
    SCS-MP2         =     False
    SCSN-MP2        =     False
    SCS-CCSD        =     False

MP2 correlation energy -0.4162205653132632
                Solving CC Amplitude Equations
                ------------------------------
  Iter             Energy              RMS        T1Diag      D1Diag    New D1Diag    D2Diag
  ----     ---------------------    ---------   ----------  ----------  ----------   --------
     0        -0.416220565313263    0.000e+00    0.000000    0.000000    0.000000    0.000000
     1        -0.427015578255453    5.694e-02    0.010571    0.000000    0.000000    0.000000
     2        -0.435106496550800    1.701e-02    0.011066    0.000000    0.000000    0.000000
     3        -0.437255388649045    8.764e-03    0.012986    0.000000    0.000000    0.000000
     4        -0.437129019816449    2.679e-03    0.013394    0.000000    0.000000    0.000000
     5        -0.437119538468081    1.393e-03    0.013586    0.000000    0.000000    0.000000
     6        -0.437148618498108    5.292e-04    0.013612    0.000000    0.000000    0.000000
     7        -0.437151592428748    2.144e-04    0.013606    0.000000    0.000000    0.000000
     8        -0.437152528092480    6.672e-05    0.013601    0.000000    0.000000    0.000000
     9        -0.437153213707600    2.383e-05    0.013601    0.000000    0.000000    0.000000
    10        -0.437152314861808    9.214e-06    0.013600    0.000000    0.000000    0.000000
    11        -0.437152479987951    3.994e-06    0.013600    0.000000    0.000000    0.000000
    12        -0.437152440324497    1.442e-06    0.013600    0.000000    0.000000    0.000000
    13        -0.437152448189168    7.288e-07    0.013600    0.000000    0.000000    0.000000
    14        -0.437152470709775    3.038e-07    0.013600    0.000000    0.000000    0.000000
    15        -0.437152472431766    1.107e-07    0.013600    0.000000    0.000000    0.000000
    16        -0.437152473002170    4.953e-08    0.013600    0.000000    0.000000    0.000000
    17        -0.437152473581713    1.909e-08    0.013600    0.000000    0.000000    0.000000
    18        -0.437152473440819    9.890e-09    0.013600    0.000000    0.000000    0.000000

      * MP2 total energy                      = -151.289798306941293
      * CCSD total energy                     = -151.310730214826634
      * CCSD(T) total energy                     = -151.323016649568501
*** Psi4 exiting successfully. Buy a developer a beer!
