                               Psi4 1.3.2 release

  ==> Input File <==

--------------------------------------------------------------------------
memory 4 GB

molecule  {
0 3
O   -1.504262781504   -0.001191536185    0.000000000000
H   -0.554379148204    0.156621815115    0.000000000000
H   -1.892076524420    0.876541024387    0.000000000000
O    1.658411729827   -0.063907115279    0.000000000000
}
set {
basis aug-cc-pvtz
reference uhf
e_convergence 10
scf_type pk
freeze_core true
}

set ccenergy {
e_convergence 10
r_convergence 10
}

e = energy('ccsd(t)')

print_out('Stephenergy {}'.format(e))

--------------------------------------------------------------------------

    Molecular point group: cs

    Geometry (in Angstrom), charge = 0, multiplicity = 3:

       Center              X                  Y                   Z               Mass
    ------------   -----------------  -----------------  -----------------  -----------------
         O           -1.504262781504    -0.001191536185     0.000000000000    15.994914619570
         H           -0.554379148204     0.156621815115     0.000000000000     1.007825032230
         H           -1.892076524420     0.876541024387     0.000000000000     1.007825032230
         O            1.658411729827    -0.063907115279     0.000000000000    15.994914619570

  Charge       = 0
  Multiplicity = 3
  Basis Set: AUG-CC-PVTZ
    Blend: AUG-CC-PVTZ

    Orbital Energies [Eh]
    ---------------------

    Alpha Occupied:

       1Ap   -20.733063     2Ap   -20.558651     3Ap    -1.442395
       4Ap    -1.343451     5Ap    -0.733176     1App   -0.732789
       6Ap    -0.710479     7Ap    -0.634489     8Ap    -0.575314
       2App   -0.502003

    Alpha Virtual:

       9Ap     0.034220    10Ap     0.053483    11Ap     0.128166
       3App    0.132923    12Ap     0.148141    13Ap     0.160819
      14Ap     0.183963     4App    0.186800    15Ap     0.214129
      16Ap     0.241994    17Ap     0.264467     5App    0.286488
      18Ap     0.303869     6App    0.320585    19Ap     0.364398
      20Ap     0.406441    21Ap     0.460825    22Ap     0.568522
       7App    0.602637    23Ap     0.608713    24Ap     0.627140
      25Ap     0.682171     8App    0.709568    26Ap     0.714630
       9App    0.736643    10App    0.748775    27Ap     0.750834
      28Ap     0.811785    11App    0.826044    29Ap     0.837313
      12App    0.890963    30Ap     0.892168    31Ap     0.922735
      32Ap     0.945341    13App    0.947376    33Ap     0.951536
      14App    0.972078    34Ap     0.978565    35Ap     1.043914
      36Ap     1.135771    15App    1.154100    37Ap     1.170003
      38Ap     1.185173    39Ap     1.261351    16App    1.294974
      40Ap     1.316459    17App    1.527766    41Ap     1.586208
      18App    1.598152    42Ap     1.716091    43Ap     1.810036
      44Ap     1.843499    45Ap     1.977622    19App    1.977733
      46Ap     1.979514    20App    2.013244    47Ap     2.018100
      21App    2.048579    48Ap     2.061454    22App    2.122616
      49Ap     2.153290    50Ap     2.176048    23App    2.212655
      24App    2.303241    51Ap     2.310517    52Ap     2.339089
      53Ap     2.414876    25App    2.441667    54Ap     2.460068
      55Ap     2.490616    26App    2.526816    56Ap     2.629375
      57Ap     2.709456    27App    2.727170    58Ap     2.735506
      59Ap     2.861094    60Ap     2.932162    28App    2.943997
      61Ap     3.698364    62Ap     3.891502    29App    4.037148
      30App    4.063246    63Ap     4.074216    31App    4.178473
      64Ap     4.208487    65Ap     4.267015    32App    4.301445
      33App    4.391547    66Ap     4.406724    34App    4.430753
      67Ap     4.445815    68Ap     4.603483    69Ap     4.781382
      70Ap     4.961326    35App    5.157591    71Ap     5.174754
      72Ap     5.298767    73Ap     5.393319    36App    5.528673
      74Ap     5.691043    75Ap     6.191049    37App    6.312373
      76Ap     6.312404    38App    6.375551    77Ap     6.378220
      39App    6.518192    78Ap     6.519470    79Ap     6.559129
      80Ap     6.637151    40App    6.736084    81Ap     6.814538
      41App    6.820052    82Ap     6.924133    42App    6.936866
      83Ap     6.962038    84Ap     7.051030    43App    7.149062
      44App    7.273121    85Ap     7.326686    45App    7.328033
      86Ap     7.364393    46App    7.435023    87Ap     7.648779
      88Ap     7.945248    89Ap     7.965031    90Ap     8.815613
      91Ap     9.516961    92Ap    16.327452

    Beta Occupied:

       1Ap   -20.654278     2Ap   -20.558781     3Ap    -1.344023
       4Ap    -1.099929     5Ap    -0.709702     6Ap    -0.580298
       7Ap    -0.541234     1App   -0.502047

    Beta Virtual:

       8Ap     0.034375     2App    0.049364     9Ap     0.049616
      10Ap     0.055188    11Ap     0.143817    12Ap     0.152977
       3App    0.161217    13Ap     0.178148    14Ap     0.207814
      15Ap     0.225465     4App    0.227188    16Ap     0.250729
      17Ap     0.265719     5App    0.286696    18Ap     0.305999
       6App    0.324324    19Ap     0.368294    20Ap     0.417381
      21Ap     0.462077    22Ap     0.572103    23Ap     0.627861
       7App    0.635033    24Ap     0.640499    25Ap     0.686976
      26Ap     0.715288     8App    0.721640     9App    0.739812
      10App    0.750432    27Ap     0.767384    28Ap     0.818145
      29Ap     0.868382    11App    0.869187    30Ap     0.920017
      12App    0.941924    31Ap     0.941949    13App    0.949546
      32Ap     0.952894    33Ap     0.969853    34Ap     1.017792
      14App    1.020312    35Ap     1.046091    15App    1.157267
      36Ap     1.163719    37Ap     1.173243    38Ap     1.216252
      39Ap     1.264424    16App    1.305564    40Ap     1.325236
      17App    1.528495    41Ap     1.588454    18App    1.599574
      42Ap     1.742308    43Ap     1.815658    44Ap     1.854068
      45Ap     1.987671    46Ap     2.015694    19App    2.015705
      20App    2.053886    47Ap     2.066071    21App    2.170770
      48Ap     2.176308    22App    2.179646    49Ap     2.194131
      50Ap     2.244779    23App    2.249954    24App    2.306612
      51Ap     2.315995    52Ap     2.361696    53Ap     2.419385
      25App    2.444373    54Ap     2.460843    55Ap     2.496930
      26App    2.535263    56Ap     2.636555    57Ap     2.726278
      27App    2.728491    58Ap     2.739158    59Ap     2.862910
      60Ap     2.936598    28App    2.944624    61Ap     3.699049
      62Ap     3.893865    29App    4.040264    30App    4.147200
      63Ap     4.193211    64Ap     4.244159    31App    4.262698
      65Ap     4.277936    32App    4.301508    33App    4.391617
      66Ap     4.410401    34App    4.431415    67Ap     4.490264
      68Ap     4.605950    69Ap     4.783058    70Ap     4.963283
      35App    5.157578    71Ap     5.175049    72Ap     5.299013
      73Ap     5.394525    36App    5.528732    74Ap     5.691392
      75Ap     6.192304    76Ap     6.421222    37App    6.421227
      38App    6.450745    77Ap     6.453413    78Ap     6.534126
      39App    6.572078    79Ap     6.600381    80Ap     6.682094
      40App    6.742022    81Ap     6.926589    41App    7.005130
      82Ap     7.006846    42App    7.046090    83Ap     7.068391
      84Ap     7.130753    43App    7.151596    44App    7.273399
      85Ap     7.327011    45App    7.328707    86Ap     7.365161
      46App    7.435433    87Ap     7.649606    88Ap     7.946202
      89Ap     7.965451    90Ap     8.817194    91Ap     9.591936
      92Ap    16.327718

    Final Occupation by Irrep:
             Ap   App
    DOCC [     7,    1 ]
    SOCC [     1,    1 ]

  @UHF Final Energy:  -150.87452440254174

   => Energetics <=

    Nuclear Repulsion Energy =             22.9192197058671390
    One-Electron Energy =                -253.6313844227331913
    Two-Electron Energy =                  79.8376403143243039
    Total Energy =                       -150.8745244025417378

  UHF NO Occupations:
  HONO-2 :    7 Ap 1.9970282
  HONO-1 :    2App 1.0000000
  HONO-0 :    8 Ap 1.0000000
  LUNO+0 :    9 Ap 0.0029718
  LUNO+1 :   10 Ap 0.0017159
  LUNO+2 :   11 Ap 0.0000024
  LUNO+3 :   12 Ap 0.0000017

Computation Completed

Properties will be evaluated at   0.000000,   0.000000,   0.000000 [a0]

Properties computed using the SCF density matrix

  Nuclear Dipole Moment: [e a0]
     X:    -2.2927      Y:     0.9682      Z:     0.0000

  Electronic Dipole Moment: [e a0]
     X:     2.7566      Y:    -0.2933      Z:     0.0000

  Dipole Moment: [e a0]
     X:     0.4639      Y:     0.6749      Z:     0.0000     Total:     0.8190

  Dipole Moment: [D]
     X:     1.1791      Y:     1.7154      Z:     0.0000     Total:     2.0816

*** tstop() called on d2-16.compute.lan at Wed Mar 10 10:57:18 2021
Module time:
	user time   =      54.10 seconds =       0.90 minutes
	system time =       2.45 seconds =       0.04 minutes
	total time  =          5 seconds =       0.08 minutes
Total time:
	user time   =      54.10 seconds =       0.90 minutes
	system time =       2.45 seconds =       0.04 minutes
	total time  =          5 seconds =       0.08 minutes
 MINTS: Wrapper to libmints.
   by Justin Turney

   Calculation information:
      Number of threads:                12
      Number of atoms:                   4
      Number of AO shells:              46
      Number of SO shells:              46
      Number of primitives:             82
      Number of atomic orbitals:       160
      Number of basis functions:       138

      Number of irreps:                  2
      Integral cutoff                 0.00e+00
      Number of functions per irrep: [  92   46 ]

 OEINTS: Overlap, kinetic, potential, dipole, and quadrupole integrals
         stored in file 35.

      Computing two-electron integrals...done
      Computed 22919408 non-zero two-electron integrals.
        Stored in file 33.

*** tstart() called on d2-16.compute.lan
*** at Wed Mar 10 10:57:23 2021

	Wfn Parameters:
	--------------------
	Wavefunction         = CCSD_T
	Number of irreps     = 2
	Number of MOs        = 138
	Number of active MOs = 136
	AO-Basis             = NONE
	Semicanonical        = false
	Reference            = UHF
	Print Level          = 1

	IRREP	# MOs	# FZDC	# DOCC	# SOCC	# VIRT	# FZVR
	-----	-----	------	------	------	------	------
	 Ap	   92	    2	    5	    1	    84	    0
	 App	   46	    0	    1	    1	    44	    0
	Transforming integrals...
	IWL integrals will be deleted.
	(OO|OO)...
	Presorting SO-basis two-electron integrals.
	Sorting File: SO Ints (nn|nn) nbuckets = 1
	Transforming the one-electron integrals and constructing Fock matrices
	Starting AA/AB first half-transformation.
	Sorting AA/AB half-transformed integrals.
	Starting BB first half-transformation.
	Sorting BB half-transformed integrals.
	First half integral transformation complete.
	Starting AA second half-transformation.
	Starting AB second half-transformation.
	Starting BB second half-transformation.
	Two-electron integral transformation complete.
	(OO|OV)...
	Starting AA second half-transformation.
	Starting AB second half-transformation.
	Starting BB second half-transformation.
	Two-electron integral transformation complete.
	(OO|VV)...
	Starting AA second half-transformation.
	Starting AB second half-transformation.
	Starting BB second half-transformation.
	Two-electron integral transformation complete.
	(OV|OO)...
	Starting AA/AB first half-transformation.
	Sorting AA/AB half-transformed integrals.
	Starting BB first half-transformation.
	Sorting BB half-transformed integrals.
	First half integral transformation complete.
	Starting AA second half-transformation.
	Starting AB second half-transformation.
	Starting BB second half-transformation.
	Two-electron integral transformation complete.
	(OV|OV)...
	Starting AA second half-transformation.
	Starting AB second half-transformation.
	Starting BB second half-transformation.
	Two-electron integral transformation complete.
	(OV|VV)...
	Starting AA second half-transformation.
	Starting AB second half-transformation.
	Starting BB second half-transformation.
	Two-electron integral transformation complete.
	(VV|OO)...
	Starting AA/AB first half-transformation.
	Sorting AA/AB half-transformed integrals.
	Starting BB first half-transformation.
	Sorting BB half-transformed integrals.
	First half integral transformation complete.
	Starting AA second half-transformation.
	Starting AB second half-transformation.
	Starting BB second half-transformation.
	Two-electron integral transformation complete.
	(VV|OV)...
	Starting AA second half-transformation.
	Starting AB second half-transformation.
	Starting BB second half-transformation.
	Two-electron integral transformation complete.
	(VV|VV)...
	Starting AA second half-transformation.
	Starting AB second half-transformation.
	Starting BB second half-transformation.
	Two-electron integral transformation complete.
	Frozen core energy     =   -125.86111282841163

	Size of irrep 0 of <AB|CD> integrals:     19.643 (MW) /    157.141 (MB)
	Size of irrep 1 of <AB|CD> integrals:     13.660 (MW) /    109.283 (MB)
	Total:                                    33.303 (MW) /    266.424 (MB)

	Size of irrep 0 of <ab|cd> integrals:     20.794 (MW) /    166.349 (MB)
	Size of irrep 1 of <ab|cd> integrals:     14.631 (MW) /    117.045 (MB)
	Total:                                    35.424 (MW) /    283.394 (MB)

	Size of irrep 0 of <Ab|Cd> integrals:     83.174 (MW) /    665.395 (MB)
	Size of irrep 1 of <Ab|Cd> integrals:     56.550 (MW) /    452.403 (MB)
	Total:                                   139.725 (MW) /   1117.798 (MB)

	Size of irrep 0 of <IA|BC> integrals:      5.323 (MW) /     42.586 (MB)
	Size of irrep 1 of <IA|BC> integrals:      3.193 (MW) /     25.547 (MB)
	Total:                                     8.517 (MW) /     68.133 (MB)

	Size of irrep 0 of <ia|bc> integrals:      4.348 (MW) /     34.780 (MB)
	Size of irrep 1 of <ia|bc> integrals:      2.372 (MW) /     18.972 (MB)
	Total:                                     6.719 (MW) /     53.752 (MB)

	Size of irrep 0 of <Ia|Bc> integrals:      5.472 (MW) /     43.776 (MB)
	Size of irrep 1 of <Ia|Bc> integrals:      3.309 (MW) /     26.470 (MB)
	Total:                                     8.781 (MW) /     70.246 (MB)

	Size of irrep 0 of <iA|bC> integrals:      4.232 (MW) /     33.853 (MB)
	Size of irrep 1 of <iA|bC> integrals:      2.286 (MW) /     18.289 (MB)
	Total:                                     6.518 (MW) /     52.142 (MB)

	Size of irrep 0 of tIjAb amplitudes:       0.292 (MW) /      2.335 (MB)
	Size of irrep 1 of tIjAb amplitudes:       0.120 (MW) /      0.963 (MB)
	Total:                                     0.412 (MW) /      3.297 (MB)

	Nuclear Rep. energy          =     22.91921970586714
	SCF energy                   =   -150.87452440254174
	One-electron energy          =    -84.41393183037377
	Two-electron (AA) energy     =     10.13774385481628
	Two-electron (BB) energy     =      5.39322486572549
	Two-electron (AB) energy     =     20.95033182983393
	Two-electron energy          =     36.48130055037571
	Reference energy             =   -150.87452440254259

*** tstop() called on d2-16.compute.lan at Wed Mar 10 10:58:05 2021
Module time:
	user time   =     242.45 seconds =       4.04 minutes
	system time =      19.70 seconds =       0.33 minutes
	total time  =         42 seconds =       0.70 minutes
Total time:
	user time   =     303.94 seconds =       5.07 minutes
	system time =      23.04 seconds =       0.38 minutes
	total time  =         52 seconds =       0.87 minutes
            **************************
            *                        *
            *        CCENERGY        *
            *                        *
            **************************

    Nuclear Rep. energy (wfn)     =   22.919219705867139
    SCF energy          (wfn)     = -150.874524402541738
    Reference energy    (file100) = -150.874524402542590

    Input parameters:
    -----------------
    Wave function   =     CCSD_T
    Reference wfn   =     UHF
    Brueckner       =     No
    Memory (Mbytes) =     4000.0
    Maxiter         =     50
    R_Convergence   =     1.0e-10
    E_Convergence   =     1.0e-10
    Restart         =     Yes
    DIIS            =     Yes
    AO Basis        =     NONE
    ABCD            =     NEW
    Cache Level     =     2
    Cache Type      =     LRU
    Print Level     =     1
    Num. of threads =     12
    # Amps to Print =     10
    Print MP2 Amps? =     No
    Analyze T2 Amps =     No
    Print Pair Ener =     No
    Local CC        =     No
    SCS-MP2         =     False
    SCSN-MP2        =     False
    SCS-CCSD        =     False

MP2 correlation energy -0.4165601591343337
                Solving CC Amplitude Equations
                ------------------------------
  Iter             Energy              RMS        T1Diag      D1Diag    New D1Diag    D2Diag
  ----     ---------------------    ---------   ----------  ----------  ----------   --------
     0        -0.416560159134334    0.000e+00    0.000000    0.000000    0.000000    0.000000
     1        -0.427294708217469    5.684e-02    0.010544    0.000000    0.000000    0.000000
     2        -0.435376573949448    1.688e-02    0.011025    0.000000    0.000000    0.000000
     3        -0.437495251493053    8.566e-03    0.012894    0.000000    0.000000    0.000000
     4        -0.437369406123475    2.534e-03    0.013261    0.000000    0.000000    0.000000
     5        -0.437354980528075    1.320e-03    0.013417    0.000000    0.000000    0.000000
     6        -0.437382219682012    5.145e-04    0.013439    0.000000    0.000000    0.000000
     7        -0.437386847559277    2.643e-04    0.013433    0.000000    0.000000    0.000000
     8        -0.437387445802932    9.934e-05    0.013429    0.000000    0.000000    0.000000
     9        -0.437388813699302    7.408e-05    0.013430    0.000000    0.000000    0.000000
    10        -0.437387258760387    6.398e-05    0.013431    0.000000    0.000000    0.000000
    11        -0.437387405185872    6.114e-05    0.013432    0.000000    0.000000    0.000000
    12        -0.437387117307931    5.945e-05    0.013434    0.000000    0.000000    0.000000
    13        -0.437387109958588    5.832e-05    0.013438    0.000000    0.000000    0.000000
    14        -0.437388281063920    5.644e-05    0.013456    0.000000    0.000000    0.000000
    15        -0.437388658291495    4.994e-05    0.013528    0.000000    0.000000    0.000000
    16        -0.437388434443562    3.340e-05    0.013667    0.000000    0.000000    0.000000
    17        -0.437388088366681    1.613e-05    0.013736    0.000000    0.000000    0.000000
    18        -0.437387959011644    7.565e-06    0.013753    0.000000    0.000000    0.000000
    19        -0.437388217881402    3.345e-06    0.013758    0.000000    0.000000    0.000000
    20        -0.437388329411270    1.499e-06    0.013758    0.000000    0.000000    0.000000
    21        -0.437388337407406    5.907e-07    0.013758    0.000000    0.000000    0.000000
    22        -0.437388338665096    2.807e-07    0.013758    0.000000    0.000000    0.000000
    23        -0.437388337547200    1.458e-07    0.013759    0.000000    0.000000    0.000000
    24        -0.437388336867950    6.052e-08    0.013759    0.000000    0.000000    0.000000
    25        -0.437388337828966    3.310e-08    0.013759    0.000000    0.000000    0.000000
    26        -0.437388338289252    2.572e-08    0.013759    0.000000    0.000000    0.000000
    27        -0.437388338448337    2.409e-08    0.013759    0.000000    0.000000    0.000000
    28        -0.437388338395400    2.334e-08    0.013759    0.000000    0.000000    0.000000
    29        -0.437388338230686    2.267e-08    0.013759    0.000000    0.000000    0.000000
    30        -0.437388337962544    2.158e-08    0.013759    0.000000    0.000000    0.000000
    31        -0.437388338161879    1.825e-08    0.013759    0.000000    0.000000    0.000000
    32        -0.437388338508143    9.557e-09    0.013759    0.000000    0.000000    0.000000
    33        -0.437388338610514    4.186e-09    0.013759    0.000000    0.000000    0.000000
    34        -0.437388338662472    1.707e-09    0.013759    0.000000    0.000000    0.000000
    35        -0.437388338669133    6.704e-10    0.013759    0.000000    0.000000    0.000000
    36        -0.437388338668879    2.873e-10    0.013759    0.000000    0.000000    0.000000

      * MP2 total energy                      = -151.291084561676911
      * CCSD total energy                     = -151.311912741210790
      * CCSD(T) total energy                     = -151.324260736955949
*** Psi4 exiting successfully. Buy a developer a beer!
