                               Psi4 1.3.2 release

  ==> Input File <==

--------------------------------------------------------------------------
memory 4 GB

molecule  {
0 3
O    0.000000000000    0.000000000000   -1.647422885898
H    0.000000000000   -0.752422407268   -1.051000844598
H   -0.000000000000    0.752422407268   -1.051000844598
O    0.000000000000    0.000000000000    1.779868101802
}
set {
basis aug-cc-pvtz
reference uhf
e_convergence 10
scf_type pk
freeze_core true
}

set ccenergy {
e_convergence 10
r_convergence 10
}

e = energy('ccsd(t)')

print_out('Stephenergy {}'.format(e))

--------------------------------------------------------------------------

    Molecular point group: c2v

    Geometry (in Angstrom), charge = 0, multiplicity = 3:

       Center              X                  Y                   Z               Mass
    ------------   -----------------  -----------------  -----------------  -----------------
         O            0.000000000000     0.000000000000    -1.647422885898    15.994914619570
         H            0.000000000000    -0.752422407268    -1.051000844598     1.007825032230
         H           -0.000000000000     0.752422407268    -1.051000844598     1.007825032230
         O            0.000000000000     0.000000000000     1.779868101802    15.994914619570

  Charge       = 0
  Multiplicity = 3
  Basis Set: AUG-CC-PVTZ
    Blend: AUG-CC-PVTZ

    Orbital Energies [Eh]
    ---------------------

    Alpha Occupied:

       1A1   -20.728985     2A1   -20.562826     3A1    -1.437964
       4A1    -1.347863     1B2    -0.729373     1B1    -0.728990
       2B2    -0.708619     5A1    -0.632302     6A1    -0.580753
       2B1    -0.505524

    Alpha Virtual:

       7A1     0.035507     3B2     0.048560     3B1     0.132066
       8A1     0.134726     9A1     0.148064     4B2     0.158007
       4B1     0.181085     5B2     0.185012    10A1     0.189304
      11A1     0.250263     6B2     0.257616     1A2     0.266143
      12A1     0.273473     5B1     0.319656    13A1     0.367559
       7B2     0.382450    14A1     0.454598     8B2     0.472059
       2A2     0.609085     9B2     0.615827    15A1     0.618557
      16A1     0.619547     6B1     0.640596    17A1     0.717879
       3A2     0.731158    10B2     0.735927     7B1     0.741858
      18A1     0.800391    19A1     0.838242     8B1     0.840841
      11B2     0.854173     9B1     0.915174    20A1     0.925087
       4A2     0.934273    12B2     0.942093    21A1     0.958533
      10B1     0.960680    13B2     0.962086    22A1     1.049544
      14B2     1.054668    11B1     1.123129     5A2     1.186256
      23A1     1.187306    15B2     1.255224    24A1     1.262062
      16B2     1.274697    25A1     1.345789     6A2     1.512025
      12B1     1.592183    26A1     1.630443    27A1     1.827842
      17B2     1.832045    18B2     1.972824    13B1     1.978571
      19B2     1.990189    28A1     2.005366     7A2     2.011032
      14B1     2.026091    29A1     2.036288     8A2     2.039687
      20B2     2.081405    30A1     2.086875    15B1     2.119634
      31A1     2.146265    21B2     2.260626    16B1     2.278936
       9A2     2.329641    32A1     2.336746    33A1     2.402274
      34A1     2.488885    22B2     2.492014    17B1     2.506097
      35A1     2.575647    23B2     2.687924    18B1     2.718403
      36A1     2.822454    10A2     2.889663    24B2     2.900562
      25B2     3.669770    37A1     3.754388    11A2     4.033239
      19B1     4.050684    26B2     4.084582    20B1     4.103006
      38A1     4.147496    27B2     4.280673    21B1     4.281935
      39A1     4.365044    12A2     4.383885    40A1     4.405087
      22B1     4.417943    28B2     4.532667    41A1     4.751796
      29B2     4.857928    13A2     5.153360    30B2     5.169511
      31B2     5.252436    42A1     5.375345    23B1     5.533289
      43A1     5.675184    44A1     6.203704    24B1     6.315129
      32B2     6.315961    14A2     6.369978    45A1     6.375156
      25B1     6.401979    33B2     6.450025    46A1     6.480274
      34B2     6.526893    26B1     6.737779    15A2     6.819092
      47A1     6.820543    27B1     6.927409    48A1     6.935120
      35B2     6.956711    49A1     7.033378    28B1     7.137175
      29B1     7.262181    16A2     7.321873    36B2     7.344256
      17A2     7.358510    50A1     7.359468    51A1     7.551094
      52A1     7.899836    37B2     7.943431    53A1     8.530055
      38B2     8.822085    54A1    15.773902

    Beta Occupied:

       1A1   -20.650419     2A1   -20.562864     3A1    -1.348035
       4A1    -1.095661     1B2    -0.708758     5A1    -0.584820
       6A1    -0.538605     1B1    -0.505515

    Beta Virtual:

       2B2     0.035395     7A1     0.036626     2B1     0.049871
       3B2     0.069574     8A1     0.140888     9A1     0.150650
       3B1     0.160362     4B2     0.180892    10A1     0.189621
       5B2     0.221935     4B1     0.225275    11A1     0.259282
       6B2     0.263169     1A2     0.266457    12A1     0.274888
       5B1     0.320298    13A1     0.370944     7B2     0.387506
      14A1     0.455727     8B2     0.472584     9B2     0.618277
      15A1     0.621015     2A2     0.641320    16A1     0.651242
       6B1     0.652713    17A1     0.719218     3A2     0.732583
       7B1     0.743835    10B2     0.747346    18A1     0.808902
      19A1     0.851308     8B1     0.911833    20A1     0.930431
       9B1     0.930746     4A2     0.935662    11B2     0.940306
      12B2     0.944738    21A1     0.959469    13B2     1.009591
      10B1     1.024962    22A1     1.050126    14B2     1.057429
      11B1     1.128161     5A2     1.186962    23A1     1.191408
      15B2     1.268477    16B2     1.278171    24A1     1.280765
      25A1     1.403302     6A2     1.512130    12B1     1.592285
      26A1     1.643128    27A1     1.828962    17B2     1.833317
      18B2     1.980523    13B1     2.016668    19B2     2.021422
      28A1     2.030694     7A2     2.041462    14B1     2.046317
      29A1     2.100970    20B2     2.125245    30A1     2.155322
       8A2     2.182357    15B1     2.188984    31A1     2.195336
      16B1     2.283098    21B2     2.306541     9A2     2.332562
      32A1     2.357559    33A1     2.413285    34A1     2.492958
      22B2     2.496618    17B1     2.510760    35A1     2.578689
      23B2     2.688085    18B1     2.718493    36A1     2.822764
      10A2     2.889686    24B2     2.902595    25B2     3.669810
      37A1     3.754539    11A2     4.033325    19B1     4.102357
      38A1     4.161976    20B1     4.223502    26B2     4.242160
      21B1     4.281958    27B2     4.293316    12A2     4.383932
      39A1     4.388562    40A1     4.414599    22B1     4.418117
      28B2     4.532861    41A1     4.751940    29B2     4.858018
      13A2     5.153377    30B2     5.169517    31B2     5.252457
      42A1     5.375801    23B1     5.533293    43A1     5.675517
      44A1     6.205426    24B1     6.423978    32B2     6.424663
      14A2     6.446640    45A1     6.450194    25B1     6.457273
      33B2     6.494375    46A1     6.529068    34B2     6.539180
      26B1     6.744224    47A1     6.935258    15A2     7.008119
      48A1     7.009959    27B1     7.034807    35B2     7.065789
      49A1     7.114262    28B1     7.137436    29B1     7.262138
      16A2     7.321920    36B2     7.346309    17A2     7.358564
      50A1     7.360127    51A1     7.551768    52A1     7.900077
      37B2     7.943415    53A1     8.615167    38B2     8.822025
      54A1    15.773896

    Final Occupation by Irrep:
             A1    A2    B1    B2
    DOCC [     6,    0,    1,    1 ]
    SOCC [     0,    0,    1,    1 ]

  @UHF Final Energy:  -150.87369437752241

   => Energetics <=

    Nuclear Repulsion Energy =             21.9422334070414280
    One-Electron Energy =                -251.6739796854437827
    Two-Electron Energy =                  78.8580519008799428
    Total Energy =                       -150.8736943775223835

  UHF NO Occupations:
  HONO-2 :    6 A1 1.9970741
  HONO-1 :    2 B1 1.0000000
  HONO-0 :    2 B2 1.0000000
  LUNO+0 :    7 A1 0.0029259
  LUNO+1 :    8 A1 0.0016877
  LUNO+2 :    9 A1 0.0000024
  LUNO+3 :   10 A1 0.0000004

Computation Completed

Properties will be evaluated at   0.000000,   0.000000,   0.000000 [a0]

Properties computed using the SCF density matrix

  Nuclear Dipole Moment: [e a0]
     X:     0.0000      Y:     0.0000      Z:    -1.9699

  Electronic Dipole Moment: [e a0]
     X:     0.0000      Y:     0.0000      Z:     2.8036

  Dipole Moment: [e a0]
     X:     0.0000      Y:     0.0000      Z:     0.8337     Total:     0.8337

  Dipole Moment: [D]
     X:     0.0000      Y:     0.0000      Z:     2.1190     Total:     2.1190

*** tstop() called on c4-2.compute.lan at Wed Mar 10 09:49:35 2021
Module time:
	user time   =      45.59 seconds =       0.76 minutes
	system time =       1.21 seconds =       0.02 minutes
	total time  =          5 seconds =       0.08 minutes
Total time:
	user time   =      45.59 seconds =       0.76 minutes
	system time =       1.21 seconds =       0.02 minutes
	total time  =          5 seconds =       0.08 minutes
 MINTS: Wrapper to libmints.
   by Justin Turney

   Calculation information:
      Number of threads:                12
      Number of atoms:                   4
      Number of AO shells:              46
      Number of SO shells:              37
      Number of primitives:             82
      Number of atomic orbitals:       160
      Number of basis functions:       138

      Number of irreps:                  4
      Integral cutoff                 0.00e+00
      Number of functions per irrep: [  54   17   29   38 ]

 OEINTS: Overlap, kinetic, potential, dipole, and quadrupole integrals
         stored in file 35.

      Computing two-electron integrals...done
      Computed 11528806 non-zero two-electron integrals.
        Stored in file 33.

*** tstart() called on c4-2.compute.lan
*** at Wed Mar 10 09:49:37 2021

	Wfn Parameters:
	--------------------
	Wavefunction         = CCSD_T
	Number of irreps     = 4
	Number of MOs        = 138
	Number of active MOs = 136
	AO-Basis             = NONE
	Semicanonical        = false
	Reference            = UHF
	Print Level          = 1

	IRREP	# MOs	# FZDC	# DOCC	# SOCC	# VIRT	# FZVR
	-----	-----	------	------	------	------	------
	 A1	   54	    2	    4	    0	    48	    0
	 A2	   17	    0	    0	    0	    17	    0
	 B1	   29	    0	    1	    1	    27	    0
	 B2	   38	    0	    1	    1	    36	    0
	Transforming integrals...
	IWL integrals will be deleted.
	(OO|OO)...
	Presorting SO-basis two-electron integrals.
	Sorting File: SO Ints (nn|nn) nbuckets = 1
	Transforming the one-electron integrals and constructing Fock matrices
	Starting AA/AB first half-transformation.
	Sorting AA/AB half-transformed integrals.
	Starting BB first half-transformation.
	Sorting BB half-transformed integrals.
	First half integral transformation complete.
	Starting AA second half-transformation.
	Starting AB second half-transformation.
	Starting BB second half-transformation.
	Two-electron integral transformation complete.
	(OO|OV)...
	Starting AA second half-transformation.
	Starting AB second half-transformation.
	Starting BB second half-transformation.
	Two-electron integral transformation complete.
	(OO|VV)...
	Starting AA second half-transformation.
	Starting AB second half-transformation.
	Starting BB second half-transformation.
	Two-electron integral transformation complete.
	(OV|OO)...
	Starting AA/AB first half-transformation.
	Sorting AA/AB half-transformed integrals.
	Starting BB first half-transformation.
	Sorting BB half-transformed integrals.
	First half integral transformation complete.
	Starting AA second half-transformation.
	Starting AB second half-transformation.
	Starting BB second half-transformation.
	Two-electron integral transformation complete.
	(OV|OV)...
	Starting AA second half-transformation.
	Starting AB second half-transformation.
	Starting BB second half-transformation.
	Two-electron integral transformation complete.
	(OV|VV)...
	Starting AA second half-transformation.
	Starting AB second half-transformation.
	Starting BB second half-transformation.
	Two-electron integral transformation complete.
	(VV|OO)...
	Starting AA/AB first half-transformation.
	Sorting AA/AB half-transformed integrals.
	Starting BB first half-transformation.
	Sorting BB half-transformed integrals.
	First half integral transformation complete.
	Starting AA second half-transformation.
	Starting AB second half-transformation.
	Starting BB second half-transformation.
	Two-electron integral transformation complete.
	(VV|OV)...
	Starting AA second half-transformation.
	Starting AB second half-transformation.
	Starting BB second half-transformation.
	Two-electron integral transformation complete.
	(VV|VV)...
	Starting AA second half-transformation.
	Starting AB second half-transformation.
	Starting BB second half-transformation.
	Two-electron integral transformation complete.
	Frozen core energy     =   -125.46146423505959

	Size of irrep 0 of <AB|CD> integrals:      5.040 (MW) /     40.320 (MB)
	Size of irrep 1 of <AB|CD> integrals:      3.197 (MW) /     25.576 (MB)
	Size of irrep 2 of <AB|CD> integrals:      3.640 (MW) /     29.124 (MB)
	Size of irrep 3 of <AB|CD> integrals:      4.783 (MW) /     38.264 (MB)
	Total:                                    16.660 (MW) /    133.283 (MB)

	Size of irrep 0 of <ab|cd> integrals:      5.327 (MW) /     42.615 (MB)
	Size of irrep 1 of <ab|cd> integrals:      3.430 (MW) /     27.439 (MB)
	Size of irrep 2 of <ab|cd> integrals:      3.893 (MW) /     31.142 (MB)
	Size of irrep 3 of <ab|cd> integrals:      5.072 (MW) /     40.572 (MB)
	Total:                                    17.721 (MW) /    141.768 (MB)

	Size of irrep 0 of <Ab|Cd> integrals:     21.912 (MW) /    175.294 (MB)
	Size of irrep 1 of <Ab|Cd> integrals:     13.242 (MW) /    105.939 (MB)
	Size of irrep 2 of <Ab|Cd> integrals:     15.062 (MW) /    120.497 (MB)
	Size of irrep 3 of <Ab|Cd> integrals:     19.705 (MW) /    157.638 (MB)
	Total:                                    69.921 (MW) /    559.368 (MB)

	Size of irrep 0 of <IA|BC> integrals:      1.469 (MW) /     11.748 (MB)
	Size of irrep 1 of <IA|BC> integrals:      0.694 (MW) /      5.550 (MB)
	Size of irrep 2 of <IA|BC> integrals:      0.908 (MW) /      7.266 (MB)
	Size of irrep 3 of <IA|BC> integrals:      1.198 (MW) /      9.588 (MB)
	Total:                                     4.269 (MW) /     34.152 (MB)

	Size of irrep 0 of <ia|bc> integrals:      1.220 (MW) /      9.758 (MB)
	Size of irrep 1 of <ia|bc> integrals:      0.493 (MW) /      3.941 (MB)
	Size of irrep 2 of <ia|bc> integrals:      0.698 (MW) /      5.588 (MB)
	Size of irrep 3 of <ia|bc> integrals:      0.959 (MW) /      7.675 (MB)
	Total:                                     3.370 (MW) /     26.961 (MB)

	Size of irrep 0 of <Ia|Bc> integrals:      1.507 (MW) /     12.058 (MB)
	Size of irrep 1 of <Ia|Bc> integrals:      0.721 (MW) /      5.764 (MB)
	Size of irrep 2 of <Ia|Bc> integrals:      0.939 (MW) /      7.514 (MB)
	Size of irrep 3 of <Ia|Bc> integrals:      1.234 (MW) /      9.872 (MB)
	Total:                                     4.401 (MW) /     35.208 (MB)

	Size of irrep 0 of <iA|bC> integrals:      1.194 (MW) /      9.549 (MB)
	Size of irrep 1 of <iA|bC> integrals:      0.477 (MW) /      3.814 (MB)
	Size of irrep 2 of <iA|bC> integrals:      0.671 (MW) /      5.371 (MB)
	Size of irrep 3 of <iA|bC> integrals:      0.928 (MW) /      7.422 (MB)
	Total:                                     3.270 (MW) /     26.156 (MB)

	Size of irrep 0 of tIjAb amplitudes:       0.094 (MW) /      0.749 (MB)
	Size of irrep 1 of tIjAb amplitudes:       0.015 (MW) /      0.116 (MB)
	Size of irrep 2 of tIjAb amplitudes:       0.047 (MW) /      0.373 (MB)
	Size of irrep 3 of tIjAb amplitudes:       0.053 (MW) /      0.426 (MB)
	Total:                                     0.208 (MW) /      1.664 (MB)

	Nuclear Rep. energy          =     21.94223340704143
	SCF energy                   =   -150.87369437752241
	One-electron energy          =    -83.25614496854797
	Two-electron (AA) energy     =      9.94653937935664
	Two-electron (BB) energy     =      5.29376751155427
	Two-electron (AB) energy     =     20.66137452813144
	Two-electron energy          =     35.90168141904235
	Reference energy             =   -150.87369437752378

*** tstop() called on c4-2.compute.lan at Wed Mar 10 09:50:01 2021
Module time:
	user time   =      67.70 seconds =       1.13 minutes
	system time =      12.07 seconds =       0.20 minutes
	total time  =         24 seconds =       0.40 minutes
Total time:
	user time   =     117.74 seconds =       1.96 minutes
	system time =      13.61 seconds =       0.23 minutes
	total time  =         31 seconds =       0.52 minutes
            **************************
            *                        *
            *        CCENERGY        *
            *                        *
            **************************

    Nuclear Rep. energy (wfn)     =   21.942233407041428
    SCF energy          (wfn)     = -150.873694377522412
    Reference energy    (file100) = -150.873694377523776

    Input parameters:
    -----------------
    Wave function   =     CCSD_T
    Reference wfn   =     UHF
    Brueckner       =     No
    Memory (Mbytes) =     4000.0
    Maxiter         =     50
    R_Convergence   =     1.0e-10
    E_Convergence   =     1.0e-10
    Restart         =     Yes
    DIIS            =     Yes
    AO Basis        =     NONE
    ABCD            =     NEW
    Cache Level     =     2
    Cache Type      =     LRU
    Print Level     =     1
    Num. of threads =     12
    # Amps to Print =     10
    Print MP2 Amps? =     No
    Analyze T2 Amps =     No
    Print Pair Ener =     No
    Local CC        =     No
    SCS-MP2         =     False
    SCSN-MP2        =     False
    SCS-CCSD        =     False

MP2 correlation energy -0.4156204672297130
                Solving CC Amplitude Equations
                ------------------------------
  Iter             Energy              RMS        T1Diag      D1Diag    New D1Diag    D2Diag
  ----     ---------------------    ---------   ----------  ----------  ----------   --------
     0        -0.415620467229713    0.000e+00    0.000000    0.000000    0.000000    0.000000
     1        -0.426505916343113    5.630e-02    0.010346    0.000000    0.000000    0.000000
     2        -0.434582925803072    1.676e-02    0.010849    0.000000    0.000000    0.000000
     3        -0.436675854704570    8.391e-03    0.012661    0.000000    0.000000    0.000000
     4        -0.436551956981645    2.490e-03    0.013005    0.000000    0.000000    0.000000
     5        -0.436539993551617    1.257e-03    0.013146    0.000000    0.000000    0.000000
     6        -0.436565464461572    4.978e-04    0.013160    0.000000    0.000000    0.000000
     7        -0.436569583399212    2.240e-04    0.013149    0.000000    0.000000    0.000000
     8        -0.436570327745527    6.806e-05    0.013143    0.000000    0.000000    0.000000
     9        -0.436571537715761    2.775e-05    0.013143    0.000000    0.000000    0.000000
    10        -0.436570370820580    1.049e-05    0.013143    0.000000    0.000000    0.000000
    11        -0.436570480455118    5.164e-06    0.013143    0.000000    0.000000    0.000000
    12        -0.436570441589662    2.511e-06    0.013143    0.000000    0.000000    0.000000
    13        -0.436570434900353    1.346e-06    0.013143    0.000000    0.000000    0.000000
    14        -0.436570461491475    6.335e-07    0.013143    0.000000    0.000000    0.000000
    15        -0.436570460117929    1.717e-07    0.013143    0.000000    0.000000    0.000000
    16        -0.436570459984082    1.047e-07    0.013143    0.000000    0.000000    0.000000
    17        -0.436570460771746    2.964e-08    0.013143    0.000000    0.000000    0.000000
    18        -0.436570460352131    1.367e-08    0.013143    0.000000    0.000000    0.000000

      * MP2 total energy                      = -151.289314844753477
      * CCSD total energy                     = -151.310264837602006
      * CCSD(T) total energy                     = -151.322469610182281
*** Psi4 exiting successfully. Buy a developer a beer!
