                               Psi4 1.3.2 release

  ==> Input File <==

--------------------------------------------------------------------------
memory 4 GB

molecule  {
0 3
O   -1.522636442466   -0.028942593331    0.000000000000
H   -0.559924226166   -0.010479009631    0.000000000000
H   -1.780774636066    0.898340808751    0.000000000000
O    1.670121750289   -0.027000771645    0.000000000000
}
set {
basis aug-cc-pvtz
reference uhf
e_convergence 10
scf_type pk
freeze_core true
}

set ccenergy {
e_convergence 10
r_convergence 10
}

e = energy('ccsd(t)')

print_out('Stephenergy {}'.format(e))

--------------------------------------------------------------------------

    Molecular point group: cs

    Geometry (in Angstrom), charge = 0, multiplicity = 3:

       Center              X                  Y                   Z               Mass
    ------------   -----------------  -----------------  -----------------  -----------------
         O           -1.522636442466    -0.028942593331     0.000000000000    15.994914619570
         H           -0.559924226166    -0.010479009631     0.000000000000     1.007825032230
         H           -1.780774636066     0.898340808751     0.000000000000     1.007825032230
         O            1.670121750289    -0.027000771645     0.000000000000    15.994914619570

  Charge       = 0
  Multiplicity = 3
  Basis Set: AUG-CC-PVTZ
    Blend: AUG-CC-PVTZ

    Orbital Energies [Eh]
    ---------------------

    Alpha Occupied:

       1Ap   -20.734859     2Ap   -20.558579     3Ap    -1.444168
       4Ap    -1.342375     5Ap    -0.734709     1App   -0.734565
       6Ap    -0.709572     7Ap    -0.636815     8Ap    -0.574327
       2App   -0.501567

    Alpha Virtual:

       9Ap     0.034573    10Ap     0.053262    11Ap     0.127563
       3App    0.131548    12Ap     0.148049    13Ap     0.161182
      14Ap     0.183388     4App    0.186225    15Ap     0.211454
      16Ap     0.241540    17Ap     0.271846     5App    0.282416
      18Ap     0.293328     6App    0.323427    19Ap     0.372131
      20Ap     0.392601    21Ap     0.459794    22Ap     0.558969
       7App    0.600094    23Ap     0.608641    24Ap     0.643958
      25Ap     0.668319    26Ap     0.712306     8App    0.712468
       9App    0.734725    10App    0.747091    27Ap     0.765635
      28Ap     0.796981    11App    0.824730    29Ap     0.851442
      30Ap     0.865461    12App    0.882950    31Ap     0.922936
      13App    0.942419    32Ap     0.943871    33Ap     0.956595
      14App    0.983423    34Ap     0.986523    35Ap     1.042907
      36Ap     1.127940    37Ap     1.168503    15App    1.177557
      38Ap     1.194003    16App    1.259318    39Ap     1.272398
      40Ap     1.323043    17App    1.528148    41Ap     1.556479
      18App    1.600914    42Ap     1.688839    43Ap     1.817557
      44Ap     1.825429    19App    1.975656    45Ap     1.975693
      46Ap     1.995585    20App    2.011161    47Ap     2.017690
      21App    2.048029    48Ap     2.060161    22App    2.122174
      49Ap     2.163782    50Ap     2.164863    23App    2.210487
      24App    2.294145    51Ap     2.299791    52Ap     2.329825
      53Ap     2.414331    25App    2.448282    54Ap     2.460292
      26App    2.523362    55Ap     2.535399    56Ap     2.630666
      57Ap     2.669391    27App    2.729130    58Ap     2.750898
      59Ap     2.865478    60Ap     2.943762    28App    2.945626
      61Ap     3.697226    62Ap     3.892755    29App    4.034270
      30App    4.058245    63Ap     4.076355    31App    4.171680
      64Ap     4.201714    65Ap     4.271824    32App    4.300681
      66Ap     4.377082    33App    4.393021    67Ap     4.437286
      34App    4.439510    68Ap     4.575674    69Ap     4.781226
      70Ap     4.958802    35App    5.154465    71Ap     5.178142
      72Ap     5.307282    73Ap     5.372103    36App    5.524743
      74Ap     5.691698    75Ap     6.195321    37App    6.310307
      76Ap     6.310349    38App    6.372630    77Ap     6.375410
      39App    6.519520    78Ap     6.526865    79Ap     6.555954
      80Ap     6.634066    40App    6.724308    81Ap     6.812300
      41App    6.818467    82Ap     6.911246    42App    6.933669
      83Ap     6.966231    84Ap     7.049367    43App    7.146793
      44App    7.274316    85Ap     7.323914    45App    7.325633
      86Ap     7.358913    46App    7.441538    87Ap     7.658199
      88Ap     7.948050    89Ap     7.963227    90Ap     8.807233
      91Ap     9.384677    92Ap    16.517051

    Beta Occupied:

       1Ap   -20.656080     2Ap   -20.558717     3Ap    -1.342972
       4Ap    -1.101714     5Ap    -0.708595     6Ap    -0.580788
       7Ap    -0.542094     1App   -0.501622

    Beta Virtual:

       8Ap     0.034216     9Ap     0.046122     2App    0.047703
      10Ap     0.057626    11Ap     0.144177    12Ap     0.150985
       3App    0.160415    13Ap     0.179802    14Ap     0.210176
      15Ap     0.217879     4App    0.225956    16Ap     0.251156
      17Ap     0.273841     5App    0.282751    18Ap     0.295585
       6App    0.327104    19Ap     0.375923    20Ap     0.403227
      21Ap     0.460521    22Ap     0.561890     7App    0.632406
      23Ap     0.638951    24Ap     0.647024    25Ap     0.671313
      26Ap     0.712998     8App    0.726259     9App    0.735878
      10App    0.748527    27Ap     0.784309    28Ap     0.809278
      29Ap     0.857143    11App    0.867306    30Ap     0.918247
      12App    0.935832    31Ap     0.943528    13App    0.949647
      32Ap     0.953928    33Ap     0.974432    34Ap     1.015614
      14App    1.024879    35Ap     1.046993    36Ap     1.153644
      37Ap     1.176670    15App    1.180824    38Ap     1.219587
      16App    1.270444    39Ap     1.274552    40Ap     1.333848
      17App    1.528976    41Ap     1.562276    18App    1.602529
      42Ap     1.715978    43Ap     1.822475    44Ap     1.832778
      45Ap     2.002865    19App    2.013763    46Ap     2.013953
      20App    2.052653    47Ap     2.065317    21App    2.169912
      22App    2.179535    48Ap     2.179624    49Ap     2.203688
      50Ap     2.226503    23App    2.248206    24App    2.296057
      51Ap     2.315978    52Ap     2.343976    53Ap     2.421763
      25App    2.450746    54Ap     2.461136    26App    2.531977
      55Ap     2.542696    56Ap     2.636741    57Ap     2.680638
      27App    2.730262    58Ap     2.757493    59Ap     2.870162
      28App    2.946314    60Ap     2.946505    61Ap     3.697673
      62Ap     3.895548    29App    4.034475    30App    4.145354
      63Ap     4.181424    64Ap     4.243137    31App    4.254476
      65Ap     4.294148    32App    4.301040    66Ap     4.392251
      33App    4.393205    34App    4.441065    67Ap     4.467836
      68Ap     4.576641    69Ap     4.782606    70Ap     4.961085
      35App    5.154450    71Ap     5.178658    72Ap     5.307495
      73Ap     5.373168    36App    5.524828    74Ap     5.692336
      75Ap     6.195781    37App    6.419268    76Ap     6.419294
      38App    6.448036    77Ap     6.450924    78Ap     6.533463
      39App    6.574482    79Ap     6.605400    80Ap     6.680224
      40App    6.728595    81Ap     6.913007    41App    7.004564
      82Ap     7.005501    42App    7.041913    83Ap     7.071195
      84Ap     7.129707    43App    7.149093    44App    7.274722
      85Ap     7.324036    45App    7.326526    86Ap     7.359406
      46App    7.441979    87Ap     7.659537    88Ap     7.948392
      89Ap     7.963395    90Ap     8.809632    91Ap     9.459293
      92Ap    16.517619

    Final Occupation by Irrep:
             Ap   App
    DOCC [     7,    1 ]
    SOCC [     1,    1 ]

  @UHF Final Energy:  -150.87437546331100

   => Energetics <=

    Nuclear Repulsion Energy =             22.8331752576976719
    One-Electron Energy =                -253.4509842594215172
    Two-Electron Energy =                  79.7434335384128588
    Total Energy =                       -150.8743754633109972

  UHF NO Occupations:
  HONO-2 :    7 Ap 1.9970295
  HONO-1 :    8 Ap 1.0000000
  HONO-0 :    2App 1.0000000
  LUNO+0 :    9 Ap 0.0029705
  LUNO+1 :   10 Ap 0.0017130
  LUNO+2 :   11 Ap 0.0000024
  LUNO+3 :   12 Ap 0.0000019

Computation Completed

Properties will be evaluated at   0.000000,   0.000000,   0.000000 [a0]

Properties computed using the SCF density matrix

  Nuclear Dipole Moment: [e a0]
     X:    -2.1936      Y:     0.8321      Z:     0.0000

  Electronic Dipole Moment: [e a0]
     X:     2.7561      Y:    -0.2141      Z:     0.0000

  Dipole Moment: [e a0]
     X:     0.5625      Y:     0.6180      Z:     0.0000     Total:     0.8357

  Dipole Moment: [D]
     X:     1.4298      Y:     1.5708      Z:     0.0000     Total:     2.1241

*** tstop() called on d1-14.compute.lan at Tue Mar  9 14:57:36 2021
Module time:
	user time   =      53.54 seconds =       0.89 minutes
	system time =       3.42 seconds =       0.06 minutes
	total time  =          7 seconds =       0.12 minutes
Total time:
	user time   =      53.54 seconds =       0.89 minutes
	system time =       3.42 seconds =       0.06 minutes
	total time  =          7 seconds =       0.12 minutes
 MINTS: Wrapper to libmints.
   by Justin Turney

   Calculation information:
      Number of threads:                12
      Number of atoms:                   4
      Number of AO shells:              46
      Number of SO shells:              46
      Number of primitives:             82
      Number of atomic orbitals:       160
      Number of basis functions:       138

      Number of irreps:                  2
      Integral cutoff                 0.00e+00
      Number of functions per irrep: [  92   46 ]

 OEINTS: Overlap, kinetic, potential, dipole, and quadrupole integrals
         stored in file 35.

      Computing two-electron integrals...done
      Computed 22929269 non-zero two-electron integrals.
        Stored in file 33.

*** tstart() called on d1-14.compute.lan
*** at Tue Mar  9 14:57:40 2021

	Wfn Parameters:
	--------------------
	Wavefunction         = CCSD_T
	Number of irreps     = 2
	Number of MOs        = 138
	Number of active MOs = 136
	AO-Basis             = NONE
	Semicanonical        = false
	Reference            = UHF
	Print Level          = 1

	IRREP	# MOs	# FZDC	# DOCC	# SOCC	# VIRT	# FZVR
	-----	-----	------	------	------	------	------
	 Ap	   92	    2	    5	    1	    84	    0
	 App	   46	    0	    1	    1	    44	    0
	Transforming integrals...
	IWL integrals will be deleted.
	(OO|OO)...
	Presorting SO-basis two-electron integrals.
	Sorting File: SO Ints (nn|nn) nbuckets = 1
	Transforming the one-electron integrals and constructing Fock matrices
	Starting AA/AB first half-transformation.
	Sorting AA/AB half-transformed integrals.
	Starting BB first half-transformation.
	Sorting BB half-transformed integrals.
	First half integral transformation complete.
	Starting AA second half-transformation.
	Starting AB second half-transformation.
	Starting BB second half-transformation.
	Two-electron integral transformation complete.
	(OO|OV)...
	Starting AA second half-transformation.
	Starting AB second half-transformation.
	Starting BB second half-transformation.
	Two-electron integral transformation complete.
	(OO|VV)...
	Starting AA second half-transformation.
	Starting AB second half-transformation.
	Starting BB second half-transformation.
	Two-electron integral transformation complete.
	(OV|OO)...
	Starting AA/AB first half-transformation.
	Sorting AA/AB half-transformed integrals.
	Starting BB first half-transformation.
	Sorting BB half-transformed integrals.
	First half integral transformation complete.
	Starting AA second half-transformation.
	Starting AB second half-transformation.
	Starting BB second half-transformation.
	Two-electron integral transformation complete.
	(OV|OV)...
	Starting AA second half-transformation.
	Starting AB second half-transformation.
	Starting BB second half-transformation.
	Two-electron integral transformation complete.
	(OV|VV)...
	Starting AA second half-transformation.
	Starting AB second half-transformation.
	Starting BB second half-transformation.
	Two-electron integral transformation complete.
	(VV|OO)...
	Starting AA/AB first half-transformation.
	Sorting AA/AB half-transformed integrals.
	Starting BB first half-transformation.
	Sorting BB half-transformed integrals.
	First half integral transformation complete.
	Starting AA second half-transformation.
	Starting AB second half-transformation.
	Starting BB second half-transformation.
	Two-electron integral transformation complete.
	(VV|OV)...
	Starting AA second half-transformation.
	Starting AB second half-transformation.
	Starting BB second half-transformation.
	Two-electron integral transformation complete.
	(VV|VV)...
	Starting AA second half-transformation.
	Starting AB second half-transformation.
	Starting BB second half-transformation.
	Two-electron integral transformation complete.
	Frozen core energy     =   -125.82125778227224

	Size of irrep 0 of <AB|CD> integrals:     19.643 (MW) /    157.141 (MB)
	Size of irrep 1 of <AB|CD> integrals:     13.660 (MW) /    109.283 (MB)
	Total:                                    33.303 (MW) /    266.424 (MB)

	Size of irrep 0 of <ab|cd> integrals:     20.794 (MW) /    166.349 (MB)
	Size of irrep 1 of <ab|cd> integrals:     14.631 (MW) /    117.045 (MB)
	Total:                                    35.424 (MW) /    283.394 (MB)

	Size of irrep 0 of <Ab|Cd> integrals:     83.174 (MW) /    665.395 (MB)
	Size of irrep 1 of <Ab|Cd> integrals:     56.550 (MW) /    452.403 (MB)
	Total:                                   139.725 (MW) /   1117.798 (MB)

	Size of irrep 0 of <IA|BC> integrals:      5.323 (MW) /     42.586 (MB)
	Size of irrep 1 of <IA|BC> integrals:      3.193 (MW) /     25.547 (MB)
	Total:                                     8.517 (MW) /     68.133 (MB)

	Size of irrep 0 of <ia|bc> integrals:      4.348 (MW) /     34.780 (MB)
	Size of irrep 1 of <ia|bc> integrals:      2.372 (MW) /     18.972 (MB)
	Total:                                     6.719 (MW) /     53.752 (MB)

	Size of irrep 0 of <Ia|Bc> integrals:      5.472 (MW) /     43.776 (MB)
	Size of irrep 1 of <Ia|Bc> integrals:      3.309 (MW) /     26.470 (MB)
	Total:                                     8.781 (MW) /     70.246 (MB)

	Size of irrep 0 of <iA|bC> integrals:      4.232 (MW) /     33.853 (MB)
	Size of irrep 1 of <iA|bC> integrals:      2.286 (MW) /     18.289 (MB)
	Total:                                     6.518 (MW) /     52.142 (MB)

	Size of irrep 0 of tIjAb amplitudes:       0.292 (MW) /      2.335 (MB)
	Size of irrep 1 of tIjAb amplitudes:       0.120 (MW) /      0.963 (MB)
	Total:                                     0.412 (MW) /      3.297 (MB)

	Nuclear Rep. energy          =     22.83317525769767
	SCF energy                   =   -150.87437546331100
	One-electron energy          =    -84.31670401998858
	Two-electron (AA) energy     =     10.12108435640965
	Two-electron (BB) energy     =      5.38514652856831
	Two-electron (AB) energy     =     20.92418019627244
	Two-electron energy          =     36.43041108125040
	Reference energy             =   -150.87437546331273

*** tstop() called on d1-14.compute.lan at Tue Mar  9 14:58:46 2021
Module time:
	user time   =     363.52 seconds =       6.06 minutes
	system time =      63.72 seconds =       1.06 minutes
	total time  =         66 seconds =       1.10 minutes
Total time:
	user time   =     423.76 seconds =       7.06 minutes
	system time =      68.05 seconds =       1.13 minutes
	total time  =         77 seconds =       1.28 minutes
            **************************
            *                        *
            *        CCENERGY        *
            *                        *
            **************************

    Nuclear Rep. energy (wfn)     =   22.833175257697672
    SCF energy          (wfn)     = -150.874375463310997
    Reference energy    (file100) = -150.874375463312731

    Input parameters:
    -----------------
    Wave function   =     CCSD_T
    Reference wfn   =     UHF
    Brueckner       =     No
    Memory (Mbytes) =     4000.0
    Maxiter         =     50
    R_Convergence   =     1.0e-10
    E_Convergence   =     1.0e-10
    Restart         =     Yes
    DIIS            =     Yes
    AO Basis        =     NONE
    ABCD            =     NEW
    Cache Level     =     2
    Cache Type      =     LRU
    Print Level     =     1
    Num. of threads =     12
    # Amps to Print =     10
    Print MP2 Amps? =     No
    Analyze T2 Amps =     No
    Print Pair Ener =     No
    Local CC        =     No
    SCS-MP2         =     False
    SCSN-MP2        =     False
    SCS-CCSD        =     False

MP2 correlation energy -0.4166193826795611
                Solving CC Amplitude Equations
                ------------------------------
  Iter             Energy              RMS        T1Diag      D1Diag    New D1Diag    D2Diag
  ----     ---------------------    ---------   ----------  ----------  ----------   --------
     0        -0.416619382679561    0.000e+00    0.000000    0.000000    0.000000    0.000000
     1        -0.427339116446469    5.687e-02    0.010545    0.000000    0.000000    0.000000
     2        -0.435437307608939    1.689e-02    0.011032    0.000000    0.000000    0.000000
     3        -0.437555444972359    8.574e-03    0.012903    0.000000    0.000000    0.000000
     4        -0.437430331585085    2.535e-03    0.013270    0.000000    0.000000    0.000000
     5        -0.437415305243697    1.326e-03    0.013427    0.000000    0.000000    0.000000
     6        -0.437442562224662    5.161e-04    0.013450    0.000000    0.000000    0.000000
     7        -0.437447367931575    2.670e-04    0.013445    0.000000    0.000000    0.000000
     8        -0.437447940786910    9.612e-05    0.013441    0.000000    0.000000    0.000000
     9        -0.437449345554027    6.884e-05    0.013442    0.000000    0.000000    0.000000
    10        -0.437447797830456    5.757e-05    0.013443    0.000000    0.000000    0.000000
    11        -0.437447923890946    5.437e-05    0.013444    0.000000    0.000000    0.000000
    12        -0.437447726526068    5.267e-05    0.013445    0.000000    0.000000    0.000000
    13        -0.437447712050981    5.173e-05    0.013447    0.000000    0.000000    0.000000
    14        -0.437448615974674    5.045e-05    0.013457    0.000000    0.000000    0.000000
    15        -0.437448945433672    4.614e-05    0.013502    0.000000    0.000000    0.000000
    16        -0.437448718897275    3.347e-05    0.013619    0.000000    0.000000    0.000000
    17        -0.437448428389473    1.706e-05    0.013692    0.000000    0.000000    0.000000
    18        -0.437448283123208    8.021e-06    0.013712    0.000000    0.000000    0.000000
    19        -0.437448529622843    3.525e-06    0.013718    0.000000    0.000000    0.000000
    20        -0.437448647828182    1.554e-06    0.013719    0.000000    0.000000    0.000000
    21        -0.437448654501484    6.177e-07    0.013719    0.000000    0.000000    0.000000
    22        -0.437448655516515    2.791e-07    0.013719    0.000000    0.000000    0.000000
    23        -0.437448654857948    1.400e-07    0.013719    0.000000    0.000000    0.000000
    24        -0.437448654104412    5.369e-08    0.013719    0.000000    0.000000    0.000000
    25        -0.437448655000267    2.659e-08    0.013719    0.000000    0.000000    0.000000
    26        -0.437448655428661    1.849e-08    0.013719    0.000000    0.000000    0.000000
    27        -0.437448655555081    1.679e-08    0.013719    0.000000    0.000000    0.000000
    28        -0.437448655533775    1.619e-08    0.013719    0.000000    0.000000    0.000000
    29        -0.437448655443031    1.577e-08    0.013719    0.000000    0.000000    0.000000
    30        -0.437448655262189    1.527e-08    0.013719    0.000000    0.000000    0.000000
    31        -0.437448655291912    1.376e-08    0.013719    0.000000    0.000000    0.000000
    32        -0.437448655531340    8.784e-09    0.013719    0.000000    0.000000    0.000000
    33        -0.437448655620027    4.068e-09    0.013719    0.000000    0.000000    0.000000
    34        -0.437448655675894    1.737e-09    0.013719    0.000000    0.000000    0.000000
    35        -0.437448655682940    6.831e-10    0.013719    0.000000    0.000000    0.000000
    36        -0.437448655682069    2.732e-10    0.013719    0.000000    0.000000    0.000000

      * MP2 total energy                      = -151.290994845992287
      * CCSD total energy                     = -151.311824118993997
      * CCSD(T) total energy                     = -151.324183820550644
*** Psi4 exiting successfully. Buy a developer a beer!
