                               Psi4 1.3.2 release

  ==> Input File <==

--------------------------------------------------------------------------
memory 4 GB

molecule  {
0 3
O    0.000000000000    0.000000000000    1.263550001736
H    0.000000000000   -0.760458395200    1.850303755818
H   -0.000000000000    0.760458395200    1.850303755818
O    0.000000000000    0.000000000000   -1.496721917523
}
set {
basis aug-cc-pvtz
reference uhf
e_convergence 10
scf_type pk
freeze_core true
}

set ccenergy {
e_convergence 10
r_convergence 10
}

e = energy('ccsd(t)')

print_out('Stephenergy {}'.format(e))

--------------------------------------------------------------------------

    Molecular point group: c2v

    Geometry (in Angstrom), charge = 0, multiplicity = 3:

       Center              X                  Y                   Z               Mass
    ------------   -----------------  -----------------  -----------------  -----------------
         O            0.000000000000     0.000000000000     1.263550001736    15.994914619570
         H            0.000000000000    -0.760458395200     1.850303755818     1.007825032230
         H           -0.000000000000     0.760458395200     1.850303755818     1.007825032230
         O            0.000000000000     0.000000000000    -1.496721917523    15.994914619570

  Charge       = 0
  Multiplicity = 3
  Basis Set: AUG-CC-PVTZ
    Blend: AUG-CC-PVTZ

    Orbital Energies [Eh]
    ---------------------

    Alpha Occupied:

       1A1   -20.684252     2A1   -20.570919     3A1    -1.393727
       4A1    -1.355700     1B2    -0.719949     5A1    -0.688144
       1B1    -0.685004     2B2    -0.586015     6A1    -0.586010
       2B1    -0.514048

    Alpha Virtual:

       7A1     0.029594     3B2     0.047659     8A1     0.118389
       3B1     0.154086     9A1     0.159545     4B2     0.180254
       5B2     0.187103     4B1     0.192759    10A1     0.198037
       1A2     0.263583     6B2     0.264470    11A1     0.265170
      12A1     0.314473     5B1     0.327322    13A1     0.376088
       7B2     0.380301    14A1     0.450022     8B2     0.464513
       9B2     0.600257     6B1     0.643736    15A1     0.647512
       2A2     0.658221    16A1     0.666962    17A1     0.698092
       3A2     0.721464    10B2     0.723740     7B1     0.768558
      18A1     0.793122    19A1     0.819704     8B1     0.837596
      20A1     0.860622     9B1     0.901376    11B2     0.918734
       4A2     0.924923    12B2     0.946496    13B2     0.980817
      21A1     0.991499    10B1     1.014579    22A1     1.047035
      14B2     1.051747    11B1     1.123555     5A2     1.176762
      23A1     1.191969    15B2     1.200172    16B2     1.329076
      24A1     1.335181    25A1     1.449993     6A2     1.507743
      12B1     1.595986    26A1     1.669088    27A1     1.811455
      17B2     1.820544    18B2     1.978640    28A1     2.040976
      13B1     2.048214    19B2     2.054304     7A2     2.057673
      14B1     2.059165    29A1     2.079252    30A1     2.115020
       8A2     2.119140    20B2     2.137230    31A1     2.142318
      15B1     2.146898    32A1     2.252639    21B2     2.271094
      16B1     2.302980     9A2     2.312053    17B1     2.436583
      33A1     2.473945    22B2     2.481174    34A1     2.489335
      35A1     2.697944    18B1     2.716663    23B2     2.722033
      36A1     2.842406    24B2     2.863812    10A2     2.880532
      25B2     3.693599    37A1     3.756898    11A2     4.012866
      19B1     4.080745    20B1     4.099950    38A1     4.144561
      26B2     4.184310    27B2     4.282127    21B1     4.293283
      39A1     4.354837    12A2     4.382651    40A1     4.430833
      22B1     4.453322    28B2     4.514313    41A1     4.790864
      29B2     4.840411    30B2     5.140357    13A2     5.147802
      31B2     5.253052    42A1     5.344078    23B1     5.517877
      43A1     5.690744    44A1     6.197780    24B1     6.390042
      45A1     6.410431    14A2     6.410687    32B2     6.424050
      25B1     6.435882    33B2     6.489463    46A1     6.539660
      34B2     6.581925    26B1     6.717885    27B1     6.903342
      47A1     6.907001    15A2     6.924852    48A1     6.941748
      35B2     6.986499    49A1     7.046213    28B1     7.136595
      29B1     7.279365    16A2     7.307296    36B2     7.316228
      17A2     7.353359    50A1     7.436025    51A1     7.546422
      52A1     7.914738    37B2     7.916521    38B2     8.808317
      53A1     8.875012    54A1    15.807996

    Beta Occupied:

       1A1   -20.605376     2A1   -20.570433     3A1    -1.354990
       4A1    -1.050904     1B2    -0.719604     5A1    -0.587856
       1B1    -0.513355     2B2    -0.495422

    Beta Virtual:

       6A1     0.029436     3B2     0.047741     2B1     0.086681
       7A1     0.092011     8A1     0.141152     9A1     0.167021
       3B1     0.170590     4B2     0.180850     5B2     0.190736
      10A1     0.225594     4B1     0.253416     1A2     0.263586
       6B2     0.264909    11A1     0.288602    12A1     0.316940
       5B1     0.328603     7B2     0.380473    13A1     0.386481
      14A1     0.451074     8B2     0.464716     9B2     0.601906
      15A1     0.660279     6B1     0.667500     2A2     0.672611
      16A1     0.674019    17A1     0.715362     3A2     0.721940
      10B2     0.735918     7B1     0.780012    18A1     0.807082
       8B1     0.846923    19A1     0.851315     4A2     0.925329
      20A1     0.927938    11B2     0.936535    12B2     0.953415
      13B2     0.984680     9B1     0.987340    21A1     0.998627
      14B2     1.052845    22A1     1.053462    10B1     1.061045
      11B1     1.140142     5A2     1.176961    23A1     1.193440
      15B2     1.202855    16B2     1.331517    24A1     1.391783
      25A1     1.488663     6A2     1.508175    12B1     1.597970
      26A1     1.699530    27A1     1.816667    17B2     1.820869
      18B2     1.980129    28A1     2.070515    13B1     2.071020
      19B2     2.071708     7A2     2.082341    29A1     2.099512
      14B1     2.101096    30A1     2.156368    20B2     2.183788
       8A2     2.202319    31A1     2.208811    15B1     2.259546
      32A1     2.310390     9A2     2.312181    16B1     2.318339
      21B2     2.322058    17B1     2.444979    33A1     2.483154
      22B2     2.484005    34A1     2.521333    35A1     2.705202
      18B1     2.718413    23B2     2.722948    36A1     2.854734
      24B2     2.863957    10A2     2.880568    25B2     3.694519
      37A1     3.757035    11A2     4.012896    19B1     4.083197
      38A1     4.177171    26B2     4.219665    20B1     4.260550
      27B2     4.293203    21B1     4.297517    12A2     4.382761
      39A1     4.427729    22B1     4.458589    40A1     4.472561
      28B2     4.514402    41A1     4.802052    29B2     4.840571
      30B2     5.140550    13A2     5.147881    31B2     5.253495
      42A1     5.344709    23B1     5.517992    43A1     5.695542
      44A1     6.199377    24B1     6.485933    14A2     6.487515
      32B2     6.488023    45A1     6.494106    25B1     6.499899
      33B2     6.524849    34B2     6.610263    46A1     6.611274
      26B1     6.725255    47A1     6.958540    15A2     7.038404
      48A1     7.042412    27B1     7.085908    35B2     7.098353
      28B1     7.137003    49A1     7.173669    29B1     7.283476
      16A2     7.307584    36B2     7.316424    17A2     7.353781
      50A1     7.438828    51A1     7.547494    52A1     7.915324
      37B2     7.916884    38B2     8.808705    53A1     8.954280
      54A1    15.808330

    Final Occupation by Irrep:
             A1    A2    B1    B2
    DOCC [     5,    0,    1,    2 ]
    SOCC [     1,    0,    1,    0 ]

  @UHF Final Energy:  -150.87358228221481

   => Energetics <=

    Nuclear Repulsion Energy =             23.8992400423252427
    One-Electron Energy =                -255.8639342748436150
    Two-Electron Energy =                  81.0911119503035707
    Total Energy =                       -150.8735822822148123

  UHF NO Occupations:
  HONO-2 :    5 A1 1.9970485
  HONO-1 :    2 B1 1.0000000
  HONO-0 :    6 A1 1.0000000
  LUNO+0 :    7 A1 0.0029515
  LUNO+1 :    3 B2 0.0017974
  LUNO+2 :    8 A1 0.0000232
  LUNO+3 :    9 A1 0.0000024

Computation Completed

Properties will be evaluated at   0.000000,   0.000000,   0.000000 [a0]

Properties computed using the SCF density matrix

  Nuclear Dipole Moment: [e a0]
     X:     0.0000      Y:     0.0000      Z:     3.4681

  Electronic Dipole Moment: [e a0]
     X:     0.0000      Y:     0.0000      Z:    -2.6331

  Dipole Moment: [e a0]
     X:     0.0000      Y:     0.0000      Z:     0.8350     Total:     0.8350

  Dipole Moment: [D]
     X:     0.0000      Y:     0.0000      Z:     2.1224     Total:     2.1224

*** tstop() called on c2-20.compute.lan at Mon Mar  8 17:32:48 2021
Module time:
	user time   =      39.38 seconds =       0.66 minutes
	system time =       3.00 seconds =       0.05 minutes
	total time  =          6 seconds =       0.10 minutes
Total time:
	user time   =      39.38 seconds =       0.66 minutes
	system time =       3.00 seconds =       0.05 minutes
	total time  =          6 seconds =       0.10 minutes
 MINTS: Wrapper to libmints.
   by Justin Turney

   Calculation information:
      Number of threads:                12
      Number of atoms:                   4
      Number of AO shells:              46
      Number of SO shells:              37
      Number of primitives:             82
      Number of atomic orbitals:       160
      Number of basis functions:       138

      Number of irreps:                  4
      Integral cutoff                 0.00e+00
      Number of functions per irrep: [  54   17   29   38 ]

 OEINTS: Overlap, kinetic, potential, dipole, and quadrupole integrals
         stored in file 35.

      Computing two-electron integrals...done
      Computed 11336965 non-zero two-electron integrals.
        Stored in file 33.

*** tstart() called on c2-20.compute.lan
*** at Mon Mar  8 17:32:51 2021

	Wfn Parameters:
	--------------------
	Wavefunction         = CCSD_T
	Number of irreps     = 4
	Number of MOs        = 138
	Number of active MOs = 136
	AO-Basis             = NONE
	Semicanonical        = false
	Reference            = UHF
	Print Level          = 1

	IRREP	# MOs	# FZDC	# DOCC	# SOCC	# VIRT	# FZVR
	-----	-----	------	------	------	------	------
	 A1	   54	    2	    3	    1	    48	    0
	 A2	   17	    0	    0	    0	    17	    0
	 B1	   29	    0	    1	    1	    27	    0
	 B2	   38	    0	    2	    0	    36	    0
	Transforming integrals...
	IWL integrals will be deleted.
	(OO|OO)...
	Presorting SO-basis two-electron integrals.
	Sorting File: SO Ints (nn|nn) nbuckets = 1
	Transforming the one-electron integrals and constructing Fock matrices
	Starting AA/AB first half-transformation.
	Sorting AA/AB half-transformed integrals.
	Starting BB first half-transformation.
	Sorting BB half-transformed integrals.
	First half integral transformation complete.
	Starting AA second half-transformation.
	Starting AB second half-transformation.
	Starting BB second half-transformation.
	Two-electron integral transformation complete.
	(OO|OV)...
	Starting AA second half-transformation.
	Starting AB second half-transformation.
	Starting BB second half-transformation.
	Two-electron integral transformation complete.
	(OO|VV)...
	Starting AA second half-transformation.
	Starting AB second half-transformation.
	Starting BB second half-transformation.
	Two-electron integral transformation complete.
	(OV|OO)...
	Starting AA/AB first half-transformation.
	Sorting AA/AB half-transformed integrals.
	Starting BB first half-transformation.
	Sorting BB half-transformed integrals.
	First half integral transformation complete.
	Starting AA second half-transformation.
	Starting AB second half-transformation.
	Starting BB second half-transformation.
	Two-electron integral transformation complete.
	(OV|OV)...
	Starting AA second half-transformation.
	Starting AB second half-transformation.
	Starting BB second half-transformation.
	Two-electron integral transformation complete.
	(OV|VV)...
	Starting AA second half-transformation.
	Starting AB second half-transformation.
	Starting BB second half-transformation.
	Two-electron integral transformation complete.
	(VV|OO)...
	Starting AA/AB first half-transformation.
	Sorting AA/AB half-transformed integrals.
	Starting BB first half-transformation.
	Sorting BB half-transformed integrals.
	First half integral transformation complete.
	Starting AA second half-transformation.
	Starting AB second half-transformation.
	Starting BB second half-transformation.
	Two-electron integral transformation complete.
	(VV|OV)...
	Starting AA second half-transformation.
	Starting AB second half-transformation.
	Starting BB second half-transformation.
	Two-electron integral transformation complete.
	(VV|VV)...
	Starting AA second half-transformation.
	Starting AB second half-transformation.
	Starting BB second half-transformation.
	Two-electron integral transformation complete.
	Frozen core energy     =   -126.39913084631904

	Size of irrep 0 of <AB|CD> integrals:      5.040 (MW) /     40.320 (MB)
	Size of irrep 1 of <AB|CD> integrals:      3.197 (MW) /     25.576 (MB)
	Size of irrep 2 of <AB|CD> integrals:      3.640 (MW) /     29.124 (MB)
	Size of irrep 3 of <AB|CD> integrals:      4.783 (MW) /     38.264 (MB)
	Total:                                    16.660 (MW) /    133.283 (MB)

	Size of irrep 0 of <ab|cd> integrals:      5.382 (MW) /     43.059 (MB)
	Size of irrep 1 of <ab|cd> integrals:      3.389 (MW) /     27.114 (MB)
	Size of irrep 2 of <ab|cd> integrals:      3.936 (MW) /     31.490 (MB)
	Size of irrep 3 of <ab|cd> integrals:      5.018 (MW) /     40.141 (MB)
	Total:                                    17.726 (MW) /    141.804 (MB)

	Size of irrep 0 of <Ab|Cd> integrals:     22.024 (MW) /    176.194 (MB)
	Size of irrep 1 of <Ab|Cd> integrals:     13.170 (MW) /    105.357 (MB)
	Size of irrep 2 of <Ab|Cd> integrals:     15.140 (MW) /    121.119 (MB)
	Size of irrep 3 of <Ab|Cd> integrals:     19.598 (MW) /    156.787 (MB)
	Total:                                    69.932 (MW) /    559.457 (MB)

	Size of irrep 0 of <IA|BC> integrals:      1.469 (MW) /     11.748 (MB)
	Size of irrep 1 of <IA|BC> integrals:      0.694 (MW) /      5.550 (MB)
	Size of irrep 2 of <IA|BC> integrals:      0.908 (MW) /      7.266 (MB)
	Size of irrep 3 of <IA|BC> integrals:      1.198 (MW) /      9.588 (MB)
	Total:                                     4.269 (MW) /     34.152 (MB)

	Size of irrep 0 of <ia|bc> integrals:      1.178 (MW) /      9.426 (MB)
	Size of irrep 1 of <ia|bc> integrals:      0.527 (MW) /      4.212 (MB)
	Size of irrep 2 of <ia|bc> integrals:      0.663 (MW) /      5.301 (MB)
	Size of irrep 3 of <ia|bc> integrals:      0.999 (MW) /      7.992 (MB)
	Total:                                     3.366 (MW) /     26.931 (MB)

	Size of irrep 0 of <Ia|Bc> integrals:      1.521 (MW) /     12.164 (MB)
	Size of irrep 1 of <Ia|Bc> integrals:      0.711 (MW) /      5.690 (MB)
	Size of irrep 2 of <Ia|Bc> integrals:      0.949 (MW) /      7.595 (MB)
	Size of irrep 3 of <Ia|Bc> integrals:      1.222 (MW) /      9.775 (MB)
	Total:                                     4.403 (MW) /     35.225 (MB)

	Size of irrep 0 of <iA|bC> integrals:      1.140 (MW) /      9.123 (MB)
	Size of irrep 1 of <iA|bC> integrals:      0.512 (MW) /      4.094 (MB)
	Size of irrep 2 of <iA|bC> integrals:      0.634 (MW) /      5.074 (MB)
	Size of irrep 3 of <iA|bC> integrals:      0.978 (MW) /      7.827 (MB)
	Total:                                     3.265 (MW) /     26.118 (MB)

	Size of irrep 0 of tIjAb amplitudes:       0.084 (MW) /      0.676 (MB)
	Size of irrep 1 of tIjAb amplitudes:       0.022 (MW) /      0.174 (MB)
	Size of irrep 2 of tIjAb amplitudes:       0.039 (MW) /      0.311 (MB)
	Size of irrep 3 of tIjAb amplitudes:       0.062 (MW) /      0.496 (MB)
	Total:                                     0.207 (MW) /      1.657 (MB)

	Nuclear Rep. energy          =     23.89924004232524
	SCF energy                   =   -150.87358228221481
	One-electron energy          =    -85.49665285554511
	Two-electron (AA) energy     =     10.37789529242586
	Two-electron (BB) energy     =      5.47396012302212
	Two-electron (AB) energy     =     21.27110596187444
	Two-electron energy          =     37.12296137732241
	Reference energy             =   -150.87358228221649

*** tstop() called on c2-20.compute.lan at Mon Mar  8 17:34:01 2021
Module time:
	user time   =     585.39 seconds =       9.76 minutes
	system time =      46.61 seconds =       0.78 minutes
	total time  =         70 seconds =       1.17 minutes
Total time:
	user time   =     630.01 seconds =      10.50 minutes
	system time =      50.26 seconds =       0.84 minutes
	total time  =         79 seconds =       1.32 minutes
            **************************
            *                        *
            *        CCENERGY        *
            *                        *
            **************************

    Nuclear Rep. energy (wfn)     =   23.899240042325243
    SCF energy          (wfn)     = -150.873582282214812
    Reference energy    (file100) = -150.873582282216489

    Input parameters:
    -----------------
    Wave function   =     CCSD_T
    Reference wfn   =     UHF
    Brueckner       =     No
    Memory (Mbytes) =     4000.0
    Maxiter         =     50
    R_Convergence   =     1.0e-10
    E_Convergence   =     1.0e-10
    Restart         =     Yes
    DIIS            =     Yes
    AO Basis        =     NONE
    ABCD            =     NEW
    Cache Level     =     2
    Cache Type      =     LRU
    Print Level     =     1
    Num. of threads =     12
    # Amps to Print =     10
    Print MP2 Amps? =     No
    Analyze T2 Amps =     No
    Print Pair Ener =     No
    Local CC        =     No
    SCS-MP2         =     False
    SCSN-MP2        =     False
    SCS-CCSD        =     False

MP2 correlation energy -0.4162032739382572
                Solving CC Amplitude Equations
                ------------------------------
  Iter             Energy              RMS        T1Diag      D1Diag    New D1Diag    D2Diag
  ----     ---------------------    ---------   ----------  ----------  ----------   --------
     0        -0.416203273938257    0.000e+00    0.000000    0.000000    0.000000    0.000000
     1        -0.427011920898922    5.694e-02    0.010577    0.000000    0.000000    0.000000
     2        -0.435098609407013    1.701e-02    0.011076    0.000000    0.000000    0.000000
     3        -0.437246915641741    8.781e-03    0.013001    0.000000    0.000000    0.000000
     4        -0.437120351531507    2.689e-03    0.013414    0.000000    0.000000    0.000000
     5        -0.437110897813192    1.402e-03    0.013610    0.000000    0.000000    0.000000
     6        -0.437140185074832    5.306e-04    0.013637    0.000000    0.000000    0.000000
     7        -0.437143169939309    2.154e-04    0.013632    0.000000    0.000000    0.000000
     8        -0.437144087274101    6.674e-05    0.013627    0.000000    0.000000    0.000000
     9        -0.437144778859754    2.394e-05    0.013626    0.000000    0.000000    0.000000
    10        -0.437143873094730    9.227e-06    0.013626    0.000000    0.000000    0.000000
    11        -0.437144037915361    4.029e-06    0.013626    0.000000    0.000000    0.000000
    12        -0.437143998222206    1.465e-06    0.013626    0.000000    0.000000    0.000000
    13        -0.437144006374771    7.411e-07    0.013626    0.000000    0.000000    0.000000
    14        -0.437144029381393    3.106e-07    0.013626    0.000000    0.000000    0.000000
    15        -0.437144031066458    1.127e-07    0.013626    0.000000    0.000000    0.000000
    16        -0.437144031679266    5.116e-08    0.013626    0.000000    0.000000    0.000000
    17        -0.437144032244764    1.955e-08    0.013626    0.000000    0.000000    0.000000
    18        -0.437144032093095    1.035e-08    0.013626    0.000000    0.000000    0.000000

      * MP2 total energy                      = -151.289785556154754
      * CCSD total energy                     = -151.310726314049646
      * CCSD(T) total energy                     = -151.323012556881224
*** Psi4 exiting successfully. Buy a developer a beer!
