                               Psi4 1.3.2 release

  ==> Input File <==

--------------------------------------------------------------------------
memory 4 GB

molecule  {
0 3
O    0.000000000000    0.000000000000    1.252538719000
H    0.000000000000   -0.758665699200    1.843355421900
H    0.000000000000    0.758665699200    1.843355421900
O    0.000000000000    0.000000000000    3.800000000000
}
set {
basis aug-cc-pvtz
reference uhf
e_convergence 10
scf_type pk
freeze_core true
}

set ccenergy {
e_convergence 10
r_convergence 10
}

e = energy('ccsd(t)')

print_out('Stephenergy {}'.format(e))

--------------------------------------------------------------------------

    Molecular point group: c2v

    Geometry (in Angstrom), charge = 0, multiplicity = 3:

       Center              X                  Y                   Z               Mass
    ------------   -----------------  -----------------  -----------------  -----------------
         O            0.000000000000     0.000000000000    -1.233251413313    15.994914619570
         H            0.000000000000    -0.758665699200    -0.642434710413     1.007825032230
         H           -0.000000000000     0.758665699200    -0.642434710413     1.007825032230
         O            0.000000000000     0.000000000000     1.314209867687    15.994914619570

  Charge       = 0
  Multiplicity = 3
  Basis Set: AUG-CC-PVTZ
    Blend: AUG-CC-PVTZ

    Orbital Energies [Eh]
    ---------------------

    Alpha Occupied:

       1A1   -20.735408     2A1   -20.567562     3A1    -1.449998
       4A1    -1.354754     5A1    -0.748847     1B1    -0.737395
       1B2    -0.719195     2B2    -0.636830     6A1    -0.581321
       2B1    -0.511371

    Alpha Virtual:

       7A1     0.036811     3B2     0.050259     8A1     0.118784
       3B1     0.130445     9A1     0.156309     4B2     0.166021
       4B1     0.190349     5B2     0.191231    10A1     0.193112
       1A2     0.263454    11A1     0.263968     6B2     0.275830
      12A1     0.291064     5B1     0.337394     7B2     0.395312
      13A1     0.407154    14A1     0.454291     8B2     0.475684
       9B2     0.630787     2A2     0.647432     6B1     0.653086
      15A1     0.659429    16A1     0.687842    17A1     0.711846
       3A2     0.723302    18A1     0.735644    10B2     0.767485
       7B1     0.791191     8B1     0.844471    19A1     0.885905
      11B2     0.889373     9B1     0.922587    12B2     0.945222
      20A1     0.982241     4A2     0.986767    21A1     1.023190
      10B1     1.032102    13B2     1.060172    22A1     1.084801
      14B2     1.136049    23A1     1.151280     5A2     1.211776
      11B1     1.226845    24A1     1.246192    15B2     1.247646
      16B2     1.447260     6A2     1.511364    25A1     1.571384
      12B1     1.578912    17B2     1.757370    26A1     1.810663
      27A1     1.859250    18B2     1.947244    13B1     2.005603
      28A1     2.036495    14B1     2.042180     7A2     2.076494
      19B2     2.082911    29A1     2.094025    30A1     2.174092
      15B1     2.178404     8A2     2.195560    31A1     2.215098
      20B2     2.220980     9A2     2.376945    32A1     2.394982
      16B1     2.438813    21B2     2.459739    33A1     2.470645
      17B1     2.513050    22B2     2.517717    34A1     2.554163
      18B1     2.732695    23B2     2.754811    35A1     2.756807
      10A2     2.883061    36A1     2.894989    24B2     2.953173
      25B2     3.687267    37A1     3.837994    11A2     4.034579
      19B1     4.078393    20B1     4.110460    38A1     4.212142
      26B2     4.237042    21B1     4.313604    27B2     4.334472
      12A2     4.380847    22B1     4.448271    39A1     4.487801
      40A1     4.568701    28B2     4.675022    41A1     4.753936
      29B2     4.912823    13A2     5.155558    30B2     5.161722
      31B2     5.270662    42A1     5.372465    23B1     5.519024
      43A1     5.691987    44A1     6.236835    24B1     6.392331
      32B2     6.401986    25B1     6.435426    14A2     6.452757
      45A1     6.471785    33B2     6.531961    46A1     6.611653
      34B2     6.729378    26B1     6.771818    47A1     6.879192
      27B1     6.880706    15A2     6.895259    48A1     6.965581
      49A1     6.991576    35B2     7.012778    28B1     7.170901
      29B1     7.260662    16A2     7.311028    17A2     7.358390
      36B2     7.374989    50A1     7.383197    51A1     7.600778
      37B2     7.952919    52A1     7.990628    38B2     8.803141
      53A1     9.940668    54A1    15.801871

    Beta Occupied:

       1A1   -20.656503     2A1   -20.565918     3A1    -1.351631
       4A1    -1.105862     1B2    -0.717001     5A1    -0.581135
       2B2    -0.547724     1B1    -0.508959

    Beta Virtual:

       6A1     0.037773     2B1     0.046101     3B2     0.050614
       7A1     0.052508     8A1     0.142093     3B1     0.159723
       4B2     0.167944     9A1     0.181409     5B2     0.193530
      10A1     0.194804     4B1     0.226272     1A2     0.263743
      11A1     0.267153     6B2     0.276121    12A1     0.299182
       5B1     0.346248     7B2     0.397636    13A1     0.433917
      14A1     0.459642     8B2     0.475844     9B2     0.630474
       2A2     0.661751     6B1     0.671962    15A1     0.674260
      16A1     0.711880    17A1     0.715327     3A2     0.723602
      10B2     0.783577    18A1     0.788780     7B1     0.824562
      19A1     0.895673    11B2     0.901705     8B1     0.920077
       9B1     0.935881    12B2     0.949999     4A2     0.988708
      20A1     0.989191    21A1     1.036458    10B1     1.060852
      13B2     1.060891    22A1     1.111249    14B2     1.145403
      23A1     1.208099     5A2     1.212990    15B2     1.248017
      11B1     1.249228    24A1     1.257065    16B2     1.453667
       6A2     1.511527    12B1     1.579744    25A1     1.590403
      17B2     1.762903    26A1     1.815684    27A1     1.902066
      18B2     1.950124    13B1     2.029795    19B2     2.097645
      28A1     2.101054    14B1     2.111024    29A1     2.144553
       7A2     2.147890     8A2     2.222482    30A1     2.234215
      31A1     2.244236    15B1     2.260590    20B2     2.291531
       9A2     2.385793    32A1     2.422125    16B1     2.467038
      21B2     2.474511    33A1     2.494294    17B1     2.514279
      22B2     2.525832    34A1     2.566611    18B1     2.733888
      23B2     2.758296    35A1     2.770634    10A2     2.883529
      36A1     2.903760    24B2     2.955613    25B2     3.688021
      37A1     3.847642    11A2     4.034127    19B1     4.110996
      20B1     4.228704    38A1     4.248797    26B2     4.255883
      21B1     4.329516    27B2     4.358899    12A2     4.380468
      22B1     4.452779    39A1     4.512531    40A1     4.661712
      28B2     4.677637    41A1     4.756540    29B2     4.914672
      13A2     5.155788    30B2     5.163176    31B2     5.272114
      42A1     5.375532    23B1     5.519576    43A1     5.693644
      44A1     6.242079    24B1     6.449046    32B2     6.459600
      14A2     6.528825    33B2     6.534716    25B1     6.541636
      45A1     6.547463    46A1     6.689778    26B1     6.774761
      34B2     6.793017    47A1     6.966070    15A2     7.007937
      48A1     7.017324    27B1     7.064851    49A1     7.118403
      35B2     7.121533    28B1     7.173773    29B1     7.264180
      16A2     7.312355    17A2     7.359732    36B2     7.376420
      50A1     7.394400    51A1     7.606958    37B2     7.954591
      52A1     7.994332    38B2     8.805404    53A1    10.011461
      54A1    15.803004

    Final Occupation by Irrep:
             A1    A2    B1    B2
    DOCC [     5,    0,    1,    2 ]
    SOCC [     1,    0,    1,    0 ]

  @UHF Final Energy:  -150.86621774469384

   => Energetics <=

    Nuclear Repulsion Energy =             26.4829779728336945
    One-Electron Energy =                -260.6209771169822034
    Two-Electron Energy =                  83.2717813994546816
    Total Energy =                       -150.8662177446938415

  UHF NO Occupations:
  HONO-2 :    5 A1 1.9970599
  HONO-1 :    6 A1 1.0000000
  HONO-0 :    2 B1 1.0000000
  LUNO+0 :    7 A1 0.0029401
  LUNO+1 :    3 B2 0.0017574
  LUNO+2 :    8 A1 0.0002800
  LUNO+3 :    3 B1 0.0000175

Computation Completed

Properties will be evaluated at   0.000000,   0.000000,   0.000000 [a0]

Properties computed using the SCF density matrix

  Nuclear Dipole Moment: [e a0]
     X:     0.0000      Y:     0.0000      Z:    -1.2041

  Electronic Dipole Moment: [e a0]
     X:     0.0000      Y:     0.0000      Z:     2.0232

  Dipole Moment: [e a0]
     X:     0.0000      Y:     0.0000      Z:     0.8191     Total:     0.8191

  Dipole Moment: [D]
     X:     0.0000      Y:     0.0000      Z:     2.0818     Total:     2.0818

*** tstop() called on b1-8.compute.lan at Wed Mar 10 09:12:36 2021
Module time:
	user time   =      37.07 seconds =       0.62 minutes
	system time =       1.00 seconds =       0.02 minutes
	total time  =          6 seconds =       0.10 minutes
Total time:
	user time   =      37.07 seconds =       0.62 minutes
	system time =       1.00 seconds =       0.02 minutes
	total time  =          6 seconds =       0.10 minutes
 MINTS: Wrapper to libmints.
   by Justin Turney

   Calculation information:
      Number of threads:                12
      Number of atoms:                   4
      Number of AO shells:              46
      Number of SO shells:              37
      Number of primitives:             82
      Number of atomic orbitals:       160
      Number of basis functions:       138

      Number of irreps:                  4
      Integral cutoff                 0.00e+00
      Number of functions per irrep: [  54   17   29   38 ]

 OEINTS: Overlap, kinetic, potential, dipole, and quadrupole integrals
         stored in file 35.

      Computing two-electron integrals...done
      Computed 11330034 non-zero two-electron integrals.
        Stored in file 33.

*** tstart() called on b1-8.compute.lan
*** at Wed Mar 10 09:12:38 2021

	Wfn Parameters:
	--------------------
	Wavefunction         = CCSD_T
	Number of irreps     = 4
	Number of MOs        = 138
	Number of active MOs = 136
	AO-Basis             = NONE
	Semicanonical        = false
	Reference            = UHF
	Print Level          = 1

	IRREP	# MOs	# FZDC	# DOCC	# SOCC	# VIRT	# FZVR
	-----	-----	------	------	------	------	------
	 A1	   54	    2	    3	    1	    48	    0
	 A2	   17	    0	    0	    0	    17	    0
	 B1	   29	    0	    1	    1	    27	    0
	 B2	   38	    0	    2	    0	    36	    0
	Transforming integrals...
	IWL integrals will be deleted.
	(OO|OO)...
	Presorting SO-basis two-electron integrals.
	Sorting File: SO Ints (nn|nn) nbuckets = 1
	Transforming the one-electron integrals and constructing Fock matrices
	Starting AA/AB first half-transformation.
	Sorting AA/AB half-transformed integrals.
	Starting BB first half-transformation.
	Sorting BB half-transformed integrals.
	First half integral transformation complete.
	Starting AA second half-transformation.
	Starting AB second half-transformation.
	Starting BB second half-transformation.
	Two-electron integral transformation complete.
	(OO|OV)...
	Starting AA second half-transformation.
	Starting AB second half-transformation.
	Starting BB second half-transformation.
	Two-electron integral transformation complete.
	(OO|VV)...
	Starting AA second half-transformation.
	Starting AB second half-transformation.
	Starting BB second half-transformation.
	Two-electron integral transformation complete.
	(OV|OO)...
	Starting AA/AB first half-transformation.
	Sorting AA/AB half-transformed integrals.
	Starting BB first half-transformation.
	Sorting BB half-transformed integrals.
	First half integral transformation complete.
	Starting AA second half-transformation.
	Starting AB second half-transformation.
	Starting BB second half-transformation.
	Two-electron integral transformation complete.
	(OV|OV)...
	Starting AA second half-transformation.
	Starting AB second half-transformation.
	Starting BB second half-transformation.
	Two-electron integral transformation complete.
	(OV|VV)...
	Starting AA second half-transformation.
	Starting AB second half-transformation.
	Starting BB second half-transformation.
	Two-electron integral transformation complete.
	(VV|OO)...
	Starting AA/AB first half-transformation.
	Sorting AA/AB half-transformed integrals.
	Starting BB first half-transformation.
	Sorting BB half-transformed integrals.
	First half integral transformation complete.
	Starting AA second half-transformation.
	Starting AB second half-transformation.
	Starting BB second half-transformation.
	Two-electron integral transformation complete.
	(VV|OV)...
	Starting AA second half-transformation.
	Starting AB second half-transformation.
	Starting BB second half-transformation.
	Two-electron integral transformation complete.
	(VV|VV)...
	Starting AA second half-transformation.
	Starting AB second half-transformation.
	Starting BB second half-transformation.
	Two-electron integral transformation complete.
	Frozen core energy     =   -127.23733929894810

	Size of irrep 0 of <AB|CD> integrals:      5.040 (MW) /     40.320 (MB)
	Size of irrep 1 of <AB|CD> integrals:      3.197 (MW) /     25.576 (MB)
	Size of irrep 2 of <AB|CD> integrals:      3.640 (MW) /     29.124 (MB)
	Size of irrep 3 of <AB|CD> integrals:      4.783 (MW) /     38.264 (MB)
	Total:                                    16.660 (MW) /    133.283 (MB)

	Size of irrep 0 of <ab|cd> integrals:      5.382 (MW) /     43.059 (MB)
	Size of irrep 1 of <ab|cd> integrals:      3.389 (MW) /     27.114 (MB)
	Size of irrep 2 of <ab|cd> integrals:      3.936 (MW) /     31.490 (MB)
	Size of irrep 3 of <ab|cd> integrals:      5.018 (MW) /     40.141 (MB)
	Total:                                    17.726 (MW) /    141.804 (MB)

	Size of irrep 0 of <Ab|Cd> integrals:     22.024 (MW) /    176.194 (MB)
	Size of irrep 1 of <Ab|Cd> integrals:     13.170 (MW) /    105.357 (MB)
	Size of irrep 2 of <Ab|Cd> integrals:     15.140 (MW) /    121.119 (MB)
	Size of irrep 3 of <Ab|Cd> integrals:     19.598 (MW) /    156.787 (MB)
	Total:                                    69.932 (MW) /    559.457 (MB)

	Size of irrep 0 of <IA|BC> integrals:      1.469 (MW) /     11.748 (MB)
	Size of irrep 1 of <IA|BC> integrals:      0.694 (MW) /      5.550 (MB)
	Size of irrep 2 of <IA|BC> integrals:      0.908 (MW) /      7.266 (MB)
	Size of irrep 3 of <IA|BC> integrals:      1.198 (MW) /      9.588 (MB)
	Total:                                     4.269 (MW) /     34.152 (MB)

	Size of irrep 0 of <ia|bc> integrals:      1.178 (MW) /      9.426 (MB)
	Size of irrep 1 of <ia|bc> integrals:      0.527 (MW) /      4.212 (MB)
	Size of irrep 2 of <ia|bc> integrals:      0.663 (MW) /      5.301 (MB)
	Size of irrep 3 of <ia|bc> integrals:      0.999 (MW) /      7.992 (MB)
	Total:                                     3.366 (MW) /     26.931 (MB)

	Size of irrep 0 of <Ia|Bc> integrals:      1.521 (MW) /     12.164 (MB)
	Size of irrep 1 of <Ia|Bc> integrals:      0.711 (MW) /      5.690 (MB)
	Size of irrep 2 of <Ia|Bc> integrals:      0.949 (MW) /      7.595 (MB)
	Size of irrep 3 of <Ia|Bc> integrals:      1.222 (MW) /      9.775 (MB)
	Total:                                     4.403 (MW) /     35.225 (MB)

	Size of irrep 0 of <iA|bC> integrals:      1.140 (MW) /      9.123 (MB)
	Size of irrep 1 of <iA|bC> integrals:      0.512 (MW) /      4.094 (MB)
	Size of irrep 2 of <iA|bC> integrals:      0.634 (MW) /      5.074 (MB)
	Size of irrep 3 of <iA|bC> integrals:      0.978 (MW) /      7.827 (MB)
	Total:                                     3.265 (MW) /     26.118 (MB)

	Size of irrep 0 of tIjAb amplitudes:       0.084 (MW) /      0.676 (MB)
	Size of irrep 1 of tIjAb amplitudes:       0.022 (MW) /      0.174 (MB)
	Size of irrep 2 of tIjAb amplitudes:       0.039 (MW) /      0.311 (MB)
	Size of irrep 3 of tIjAb amplitudes:       0.062 (MW) /      0.496 (MB)
	Total:                                     0.207 (MW) /      1.657 (MB)

	Nuclear Rep. energy          =     26.48297797283369
	SCF energy                   =   -150.86621774469384
	One-electron energy          =    -88.67168889515045
	Two-electron (AA) energy     =     10.86233936597266
	Two-electron (BB) energy     =      5.70047015584158
	Two-electron (AB) energy     =     21.99702295475348
	Two-electron energy          =     38.55983247656771
	Reference energy             =   -150.86621774469717

*** tstop() called on b1-8.compute.lan at Wed Mar 10 09:13:00 2021
Module time:
	user time   =     170.33 seconds =       2.84 minutes
	system time =       7.93 seconds =       0.13 minutes
	total time  =         22 seconds =       0.37 minutes
Total time:
	user time   =     212.72 seconds =       3.55 minutes
	system time =       9.24 seconds =       0.15 minutes
	total time  =         30 seconds =       0.50 minutes
            **************************
            *                        *
            *        CCENERGY        *
            *                        *
            **************************

    Nuclear Rep. energy (wfn)     =   26.482977972833694
    SCF energy          (wfn)     = -150.866217744693841
    Reference energy    (file100) = -150.866217744697167

    Input parameters:
    -----------------
    Wave function   =     CCSD_T
    Reference wfn   =     UHF
    Brueckner       =     No
    Memory (Mbytes) =     4000.0
    Maxiter         =     50
    R_Convergence   =     1.0e-10
    E_Convergence   =     1.0e-10
    Restart         =     Yes
    DIIS            =     Yes
    AO Basis        =     NONE
    ABCD            =     NEW
    Cache Level     =     2
    Cache Type      =     LRU
    Print Level     =     1
    Num. of threads =     12
    # Amps to Print =     10
    Print MP2 Amps? =     No
    Analyze T2 Amps =     No
    Print Pair Ener =     No
    Local CC        =     No
    SCS-MP2         =     False
    SCSN-MP2        =     False
    SCS-CCSD        =     False

MP2 correlation energy -0.4190102970758952
                Solving CC Amplitude Equations
                ------------------------------
  Iter             Energy              RMS        T1Diag      D1Diag    New D1Diag    D2Diag
  ----     ---------------------    ---------   ----------  ----------  ----------   --------
     0        -0.419010297075895    0.000e+00    0.000000    0.000000    0.000000    0.000000
     1        -0.429543240799117    6.118e-02    0.012125    0.000000    0.000000    0.000000
     2        -0.437896694922476    1.862e-02    0.012849    0.000000    0.000000    0.000000
     3        -0.440235203487307    1.245e-02    0.015713    0.000000    0.000000    0.000000
     4        -0.440188110664725    4.812e-03    0.017034    0.000000    0.000000    0.000000
     5        -0.440150400773979    3.298e-03    0.017954    0.000000    0.000000    0.000000
     6        -0.440224376846269    1.277e-03    0.018396    0.000000    0.000000    0.000000
     7        -0.440235018460945    5.924e-04    0.018505    0.000000    0.000000    0.000000
     8        -0.440233963978076    2.263e-04    0.018557    0.000000    0.000000    0.000000
     9        -0.440237664425790    1.221e-04    0.018565    0.000000    0.000000    0.000000
    10        -0.440231947448878    6.325e-05    0.018579    0.000000    0.000000    0.000000
    11        -0.440232567604220    3.042e-05    0.018579    0.000000    0.000000    0.000000
    12        -0.440232379272604    1.197e-05    0.018581    0.000000    0.000000    0.000000
    13        -0.440232576915987    6.311e-06    0.018580    0.000000    0.000000    0.000000
    14        -0.440232798534002    2.525e-06    0.018580    0.000000    0.000000    0.000000
    15        -0.440232800155999    1.081e-06    0.018580    0.000000    0.000000    0.000000
    16        -0.440232805895024    4.740e-07    0.018580    0.000000    0.000000    0.000000
    17        -0.440232807546056    1.620e-07    0.018580    0.000000    0.000000    0.000000
    18        -0.440232805498207    8.100e-08    0.018580    0.000000    0.000000    0.000000

      * MP2 total energy                      = -151.285228041773053
      * CCSD total energy                     = -151.306450550141932
      * CCSD(T) total energy                     = -151.319332676550147
*** Psi4 exiting successfully. Buy a developer a beer!
