                               Psi4 1.3.2 release

  ==> Input File <==

--------------------------------------------------------------------------
memory 4 GB

molecule  {
0 3
O   -1.503773339178   -0.001189832490    0.000000000000
H   -0.554799946344    0.156632171191    0.000000000000
H   -1.894975785921    0.877192382983    0.000000000000
O    1.658131481440   -0.063950513014    0.000000000000
}
set {
basis aug-cc-pvtz
reference uhf
e_convergence 10
scf_type pk
freeze_core true
}

set ccenergy {
e_convergence 10
r_convergence 10
}

e = energy('ccsd(t)')

print_out('Stephenergy {}'.format(e))

--------------------------------------------------------------------------

    Molecular point group: cs

    Geometry (in Angstrom), charge = 0, multiplicity = 3:

       Center              X                  Y                   Z               Mass
    ------------   -----------------  -----------------  -----------------  -----------------
         O           -1.503773339178    -0.001189832490     0.000000000000    15.994914619570
         H           -0.554799946344     0.156632171191     0.000000000000     1.007825032230
         H           -1.894975785921     0.877192382983     0.000000000000     1.007825032230
         O            1.658131481440    -0.063950513014     0.000000000000    15.994914619570

  Charge       = 0
  Multiplicity = 3
  Basis Set: AUG-CC-PVTZ
    Blend: AUG-CC-PVTZ

    Orbital Energies [Eh]
    ---------------------

    Alpha Occupied:

       1Ap   -20.733010     2Ap   -20.558696     3Ap    -1.442343
       4Ap    -1.343072     5Ap    -0.733125     1App   -0.732739
       6Ap    -0.710506     7Ap    -0.634409     8Ap    -0.574941
       2App   -0.501927

    Alpha Virtual:

       9Ap     0.034206    10Ap     0.053480    11Ap     0.128191
       3App    0.132937    12Ap     0.148146    13Ap     0.160771
      14Ap     0.183921     4App    0.186811    15Ap     0.214135
      16Ap     0.242047    17Ap     0.264301     5App    0.286447
      18Ap     0.303994     6App    0.320697    19Ap     0.364499
      20Ap     0.406407    21Ap     0.460456    22Ap     0.568605
       7App    0.602665    23Ap     0.608738    24Ap     0.627137
      25Ap     0.682030     8App    0.709526    26Ap     0.714772
       9App    0.736684    10App    0.748628    27Ap     0.750695
      28Ap     0.811688    11App    0.826069    29Ap     0.837135
      12App    0.890958    30Ap     0.892092    31Ap     0.922882
      32Ap     0.945172    13App    0.947690    33Ap     0.951357
      14App    0.971640    34Ap     0.978958    35Ap     1.043225
      36Ap     1.135956    15App    1.153714    37Ap     1.170120
      38Ap     1.185310    39Ap     1.260708    16App    1.295323
      40Ap     1.316547    17App    1.527412    41Ap     1.587515
      18App    1.598376    42Ap     1.715839    43Ap     1.809641
      44Ap     1.842741    45Ap     1.977556    19App    1.977775
      46Ap     1.978544    20App    2.013265    47Ap     2.018069
      21App    2.048471    48Ap     2.060956    22App    2.122593
      49Ap     2.152750    50Ap     2.175995    23App    2.212740
      24App    2.302849    51Ap     2.311014    52Ap     2.338964
      53Ap     2.414895    25App    2.441443    54Ap     2.458388
      55Ap     2.490851    26App    2.526881    56Ap     2.630250
      57Ap     2.710510    27App    2.727450    58Ap     2.735601
      59Ap     2.860807    60Ap     2.933512    28App    2.943332
      61Ap     3.695959    62Ap     3.892253    29App    4.036050
      30App    4.063061    63Ap     4.074317    31App    4.178305
      64Ap     4.209689    65Ap     4.265227    32App    4.303002
      33App    4.391311    66Ap     4.408294    34App    4.430073
      67Ap     4.445625    68Ap     4.602490    69Ap     4.778928
      70Ap     4.958583    35App    5.156612    71Ap     5.171718
      72Ap     5.299152    73Ap     5.391634    36App    5.526313
      74Ap     5.692426    75Ap     6.188811    37App    6.312419
      76Ap     6.312450    38App    6.375547    77Ap     6.378264
      39App    6.518188    78Ap     6.519672    79Ap     6.559503
      80Ap     6.637253    40App    6.735963    81Ap     6.814510
      41App    6.820107    82Ap     6.921477    42App    6.936952
      83Ap     6.961459    84Ap     7.050985    43App    7.148854
      44App    7.272063    45App    7.326420    85Ap     7.327003
      86Ap     7.364254    46App    7.435187    87Ap     7.648384
      88Ap     7.947120    89Ap     7.961444    90Ap     8.811484
      91Ap     9.517007    92Ap    16.316429

    Beta Occupied:

       1Ap   -20.654226     2Ap   -20.558825     3Ap    -1.343644
       4Ap    -1.099878     5Ap    -0.709729     6Ap    -0.579886
       7Ap    -0.541190     1App   -0.501969

    Beta Virtual:

       8Ap     0.034364     2App    0.049408     9Ap     0.049654
      10Ap     0.055183    11Ap     0.143822    12Ap     0.152977
       3App    0.161206    13Ap     0.178046    14Ap     0.207817
      15Ap     0.225527     4App    0.227225    16Ap     0.250769
      17Ap     0.265549     5App    0.286655    18Ap     0.306132
       6App    0.324436    19Ap     0.368399    20Ap     0.417302
      21Ap     0.461739    22Ap     0.572181    23Ap     0.627887
       7App    0.635060    24Ap     0.640480    25Ap     0.686834
      26Ap     0.715436     8App    0.721591     9App    0.739854
      10App    0.750304    27Ap     0.767194    28Ap     0.818061
      29Ap     0.868148    11App    0.869082    30Ap     0.920079
      12App    0.941808    31Ap     0.941866    13App    0.949802
      32Ap     0.952740    33Ap     0.970225    34Ap     1.017759
      14App    1.020179    35Ap     1.045467    15App    1.156856
      36Ap     1.163922    37Ap     1.173379    38Ap     1.216341
      39Ap     1.263857    16App    1.305920    40Ap     1.325262
      17App    1.528119    41Ap     1.589751    18App    1.599819
      42Ap     1.742013    43Ap     1.815070    44Ap     1.853557
      45Ap     1.986323    46Ap     2.015738    19App    2.015749
      20App    2.053793    47Ap     2.065683    21App    2.170729
      48Ap     2.176094    22App    2.179644    49Ap     2.193875
      50Ap     2.244737    23App    2.250007    24App    2.306279
      51Ap     2.316502    52Ap     2.361685    53Ap     2.419351
      25App    2.444156    54Ap     2.459187    55Ap     2.497153
      26App    2.535316    56Ap     2.637395    57Ap     2.727542
      27App    2.728775    58Ap     2.739014    59Ap     2.862640
      60Ap     2.937955    28App    2.943957    61Ap     3.696641
      62Ap     3.894603    29App    4.039025    30App    4.146930
      63Ap     4.194348    64Ap     4.244187    31App    4.262756
      65Ap     4.276309    32App    4.303060    33App    4.391380
      66Ap     4.411885    34App    4.430739    67Ap     4.490079
      68Ap     4.605027    69Ap     4.780575    70Ap     4.960557
      35App    5.156599    71Ap     5.172011    72Ap     5.299389
      73Ap     5.392867    36App    5.526373    74Ap     5.692775
      75Ap     6.190062    76Ap     6.421269    37App    6.421274
      38App    6.450735    77Ap     6.453478    78Ap     6.534727
      39App    6.572064    79Ap     6.600332    80Ap     6.682193
      40App    6.741922    81Ap     6.923395    41App    7.005184
      82Ap     7.006836    42App    7.046224    83Ap     7.068310
      84Ap     7.130736    43App    7.151331    44App    7.272298
      45App    7.327142    85Ap     7.327303    86Ap     7.365050
      46App    7.435595    87Ap     7.649231    88Ap     7.948136
      89Ap     7.961795    90Ap     8.813020    91Ap     9.592012
      92Ap    16.316699

    Final Occupation by Irrep:
             Ap   App
    DOCC [     7,    1 ]
    SOCC [     1,    1 ]

  @UHF Final Energy:  -150.87449439977451

   => Energetics <=

    Nuclear Repulsion Energy =             22.9153467503404684
    One-Electron Energy =                -253.6255700703036382
    Two-Electron Energy =                  79.8357289201886573
    Total Energy =                       -150.8744943997745054

  UHF NO Occupations:
  HONO-2 :    7 Ap 1.9970283
  HONO-1 :    2App 1.0000000
  HONO-0 :    8 Ap 1.0000000
  LUNO+0 :    9 Ap 0.0029717
  LUNO+1 :   10 Ap 0.0017155
  LUNO+2 :   11 Ap 0.0000024
  LUNO+3 :   12 Ap 0.0000017

Computation Completed

Properties will be evaluated at   0.000000,   0.000000,   0.000000 [a0]

Properties computed using the SCF density matrix

  Nuclear Dipole Moment: [e a0]
     X:    -2.2958      Y:     0.9689      Z:     0.0000

  Electronic Dipole Moment: [e a0]
     X:     2.7572      Y:    -0.2937      Z:     0.0000

  Dipole Moment: [e a0]
     X:     0.4613      Y:     0.6752      Z:     0.0000     Total:     0.8178

  Dipole Moment: [D]
     X:     1.1726      Y:     1.7162      Z:     0.0000     Total:     2.0785

*** tstop() called on c4-4.compute.lan at Tue Mar  9 15:41:07 2021
Module time:
	user time   =      60.58 seconds =       1.01 minutes
	system time =       1.02 seconds =       0.02 minutes
	total time  =          5 seconds =       0.08 minutes
Total time:
	user time   =      60.58 seconds =       1.01 minutes
	system time =       1.02 seconds =       0.02 minutes
	total time  =          5 seconds =       0.08 minutes
 MINTS: Wrapper to libmints.
   by Justin Turney

   Calculation information:
      Number of threads:                12
      Number of atoms:                   4
      Number of AO shells:              46
      Number of SO shells:              46
      Number of primitives:             82
      Number of atomic orbitals:       160
      Number of basis functions:       138

      Number of irreps:                  2
      Integral cutoff                 0.00e+00
      Number of functions per irrep: [  92   46 ]

 OEINTS: Overlap, kinetic, potential, dipole, and quadrupole integrals
         stored in file 35.

      Computing two-electron integrals...done
      Computed 22935488 non-zero two-electron integrals.
        Stored in file 33.

*** tstart() called on c4-4.compute.lan
*** at Tue Mar  9 15:41:10 2021

	Wfn Parameters:
	--------------------
	Wavefunction         = CCSD_T
	Number of irreps     = 2
	Number of MOs        = 138
	Number of active MOs = 136
	AO-Basis             = NONE
	Semicanonical        = false
	Reference            = UHF
	Print Level          = 1

	IRREP	# MOs	# FZDC	# DOCC	# SOCC	# VIRT	# FZVR
	-----	-----	------	------	------	------	------
	 Ap	   92	    2	    5	    1	    84	    0
	 App	   46	    0	    1	    1	    44	    0
	Transforming integrals...
	IWL integrals will be deleted.
	(OO|OO)...
	Presorting SO-basis two-electron integrals.
	Sorting File: SO Ints (nn|nn) nbuckets = 1
	Transforming the one-electron integrals and constructing Fock matrices
	Starting AA/AB first half-transformation.
	Sorting AA/AB half-transformed integrals.
	Starting BB first half-transformation.
	Sorting BB half-transformed integrals.
	First half integral transformation complete.
	Starting AA second half-transformation.
	Starting AB second half-transformation.
	Starting BB second half-transformation.
	Two-electron integral transformation complete.
	(OO|OV)...
	Starting AA second half-transformation.
	Starting AB second half-transformation.
	Starting BB second half-transformation.
	Two-electron integral transformation complete.
	(OO|VV)...
	Starting AA second half-transformation.
	Starting AB second half-transformation.
	Starting BB second half-transformation.
	Two-electron integral transformation complete.
	(OV|OO)...
	Starting AA/AB first half-transformation.
	Sorting AA/AB half-transformed integrals.
	Starting BB first half-transformation.
	Sorting BB half-transformed integrals.
	First half integral transformation complete.
	Starting AA second half-transformation.
	Starting AB second half-transformation.
	Starting BB second half-transformation.
	Two-electron integral transformation complete.
	(OV|OV)...
	Starting AA second half-transformation.
	Starting AB second half-transformation.
	Starting BB second half-transformation.
	Two-electron integral transformation complete.
	(OV|VV)...
	Starting AA second half-transformation.
	Starting AB second half-transformation.
	Starting BB second half-transformation.
	Two-electron integral transformation complete.
	(VV|OO)...
	Starting AA/AB first half-transformation.
	Sorting AA/AB half-transformed integrals.
	Starting BB first half-transformation.
	Sorting BB half-transformed integrals.
	First half integral transformation complete.
	Starting AA second half-transformation.
	Starting AB second half-transformation.
	Starting BB second half-transformation.
	Two-electron integral transformation complete.
	(VV|OV)...
	Starting AA second half-transformation.
	Starting AB second half-transformation.
	Starting BB second half-transformation.
	Two-electron integral transformation complete.
	(VV|VV)...
	Starting AA second half-transformation.
	Starting AB second half-transformation.
	Starting BB second half-transformation.
	Two-electron integral transformation complete.
	Frozen core energy     =   -125.86077494963435

	Size of irrep 0 of <AB|CD> integrals:     19.643 (MW) /    157.141 (MB)
	Size of irrep 1 of <AB|CD> integrals:     13.660 (MW) /    109.283 (MB)
	Total:                                    33.303 (MW) /    266.424 (MB)

	Size of irrep 0 of <ab|cd> integrals:     20.794 (MW) /    166.349 (MB)
	Size of irrep 1 of <ab|cd> integrals:     14.631 (MW) /    117.045 (MB)
	Total:                                    35.424 (MW) /    283.394 (MB)

	Size of irrep 0 of <Ab|Cd> integrals:     83.174 (MW) /    665.395 (MB)
	Size of irrep 1 of <Ab|Cd> integrals:     56.550 (MW) /    452.403 (MB)
	Total:                                   139.725 (MW) /   1117.798 (MB)

	Size of irrep 0 of <IA|BC> integrals:      5.323 (MW) /     42.586 (MB)
	Size of irrep 1 of <IA|BC> integrals:      3.193 (MW) /     25.547 (MB)
	Total:                                     8.517 (MW) /     68.133 (MB)

	Size of irrep 0 of <ia|bc> integrals:      4.348 (MW) /     34.780 (MB)
	Size of irrep 1 of <ia|bc> integrals:      2.372 (MW) /     18.972 (MB)
	Total:                                     6.719 (MW) /     53.752 (MB)

	Size of irrep 0 of <Ia|Bc> integrals:      5.472 (MW) /     43.776 (MB)
	Size of irrep 1 of <Ia|Bc> integrals:      3.309 (MW) /     26.470 (MB)
	Total:                                     8.781 (MW) /     70.246 (MB)

	Size of irrep 0 of <iA|bC> integrals:      4.232 (MW) /     33.853 (MB)
	Size of irrep 1 of <iA|bC> integrals:      2.286 (MW) /     18.289 (MB)
	Total:                                     6.518 (MW) /     52.142 (MB)

	Size of irrep 0 of tIjAb amplitudes:       0.292 (MW) /      2.335 (MB)
	Size of irrep 1 of tIjAb amplitudes:       0.120 (MW) /      0.963 (MB)
	Total:                                     0.412 (MW) /      3.297 (MB)

	Nuclear Rep. energy          =     22.91534675034047
	SCF energy                   =   -150.87449439977451
	One-electron energy          =    -84.40877712889326
	Two-electron (AA) energy     =     10.13757038063815
	Two-electron (BB) energy     =      5.39288535206882
	Two-electron (AB) energy     =     20.94925519570468
	Two-electron energy          =     36.47971092841165
	Reference energy             =   -150.87449439977547

*** tstop() called on c4-4.compute.lan at Tue Mar  9 15:41:43 2021
Module time:
	user time   =     104.45 seconds =       1.74 minutes
	system time =      18.18 seconds =       0.30 minutes
	total time  =         33 seconds =       0.55 minutes
Total time:
	user time   =     171.17 seconds =       2.85 minutes
	system time =      19.76 seconds =       0.33 minutes
	total time  =         41 seconds =       0.68 minutes
            **************************
            *                        *
            *        CCENERGY        *
            *                        *
            **************************

    Nuclear Rep. energy (wfn)     =   22.915346750340468
    SCF energy          (wfn)     = -150.874494399774505
    Reference energy    (file100) = -150.874494399775472

    Input parameters:
    -----------------
    Wave function   =     CCSD_T
    Reference wfn   =     UHF
    Brueckner       =     No
    Memory (Mbytes) =     4000.0
    Maxiter         =     50
    R_Convergence   =     1.0e-10
    E_Convergence   =     1.0e-10
    Restart         =     Yes
    DIIS            =     Yes
    AO Basis        =     NONE
    ABCD            =     NEW
    Cache Level     =     2
    Cache Type      =     LRU
    Print Level     =     1
    Num. of threads =     12
    # Amps to Print =     10
    Print MP2 Amps? =     No
    Analyze T2 Amps =     No
    Print Pair Ener =     No
    Local CC        =     No
    SCS-MP2         =     False
    SCSN-MP2        =     False
    SCS-CCSD        =     False

MP2 correlation energy -0.4165905915908307
                Solving CC Amplitude Equations
                ------------------------------
  Iter             Energy              RMS        T1Diag      D1Diag    New D1Diag    D2Diag
  ----     ---------------------    ---------   ----------  ----------  ----------   --------
     0        -0.416590591590831    0.000e+00    0.000000    0.000000    0.000000    0.000000
     1        -0.427315988745976    5.687e-02    0.010550    0.000000    0.000000    0.000000
     2        -0.435402193106014    1.689e-02    0.011029    0.000000    0.000000    0.000000
     3        -0.437523069532145    8.572e-03    0.012900    0.000000    0.000000    0.000000
     4        -0.437397242505450    2.535e-03    0.013267    0.000000    0.000000    0.000000
     5        -0.437382792037882    1.320e-03    0.013423    0.000000    0.000000    0.000000
     6        -0.437410029444820    5.147e-04    0.013445    0.000000    0.000000    0.000000
     7        -0.437414656171103    2.645e-04    0.013440    0.000000    0.000000    0.000000
     8        -0.437415256041129    9.957e-05    0.013435    0.000000    0.000000    0.000000
     9        -0.437416625926229    7.434e-05    0.013436    0.000000    0.000000    0.000000
    10        -0.437415068822038    6.426e-05    0.013437    0.000000    0.000000    0.000000
    11        -0.437415215198611    6.142e-05    0.013439    0.000000    0.000000    0.000000
    12        -0.437414925856632    5.973e-05    0.013441    0.000000    0.000000    0.000000
    13        -0.437414917281911    5.859e-05    0.013444    0.000000    0.000000    0.000000
    14        -0.437416096418780    5.670e-05    0.013463    0.000000    0.000000    0.000000
    15        -0.437416476569912    5.013e-05    0.013536    0.000000    0.000000    0.000000
    16        -0.437416252564248    3.348e-05    0.013676    0.000000    0.000000    0.000000
    17        -0.437415906383887    1.616e-05    0.013745    0.000000    0.000000    0.000000
    18        -0.437415776882005    7.577e-06    0.013763    0.000000    0.000000    0.000000
    19        -0.437416036110758    3.350e-06    0.013767    0.000000    0.000000    0.000000
    20        -0.437416147729471    1.501e-06    0.013768    0.000000    0.000000    0.000000
    21        -0.437416155686348    5.914e-07    0.013768    0.000000    0.000000    0.000000
    22        -0.437416156962187    2.809e-07    0.013768    0.000000    0.000000    0.000000
    23        -0.437416155851250    1.459e-07    0.013768    0.000000    0.000000    0.000000
    24        -0.437416155173440    6.055e-08    0.013768    0.000000    0.000000    0.000000
    25        -0.437416156137285    3.312e-08    0.013768    0.000000    0.000000    0.000000
    26        -0.437416156596952    2.574e-08    0.013768    0.000000    0.000000    0.000000
    27        -0.437416156755928    2.411e-08    0.013768    0.000000    0.000000    0.000000
    28        -0.437416156703141    2.336e-08    0.013768    0.000000    0.000000    0.000000
    29        -0.437416156538189    2.268e-08    0.013768    0.000000    0.000000    0.000000
    30        -0.437416156270669    2.158e-08    0.013768    0.000000    0.000000    0.000000
    31        -0.437416156472116    1.825e-08    0.013768    0.000000    0.000000    0.000000
    32        -0.437416156818140    9.543e-09    0.013769    0.000000    0.000000    0.000000
    33        -0.437416156920271    4.176e-09    0.013769    0.000000    0.000000    0.000000
    34        -0.437416156972173    1.705e-09    0.013769    0.000000    0.000000    0.000000
    35        -0.437416156978860    6.703e-10    0.013769    0.000000    0.000000    0.000000
    36        -0.437416156978617    2.871e-10    0.013769    0.000000    0.000000    0.000000

      * MP2 total energy                      = -151.291084991366290
      * CCSD total energy                     = -151.311910556753389
      * CCSD(T) total energy                     = -151.324262820527139
*** Psi4 exiting successfully. Buy a developer a beer!
