                               Psi4 1.3.2 release

  ==> Input File <==

--------------------------------------------------------------------------
memory 4 GB

molecule  {
0 3
O   -0.000260918650    0.000000000000    1.270171670022
H    0.001707737905   -0.759829719200    1.859550744222
H    0.001707737905    0.759829719200    1.859550744222
O    0.000045712624    0.000000000000   -1.504508874478
}
set {
basis aug-cc-pvtz
reference uhf
e_convergence 10
scf_type pk
freeze_core true
}

set ccenergy {
e_convergence 10
r_convergence 10
}

e = energy('ccsd(t)')

print_out('Stephenergy {}'.format(e))

--------------------------------------------------------------------------

    Molecular point group: cs

    Geometry (in Angstrom), charge = 0, multiplicity = 3:

       Center              X                  Y                   Z               Mass
    ------------   -----------------  -----------------  -----------------  -----------------
         O            0.000260918650     1.270171670022     0.000000000000    15.994914619570
         H           -0.001707737905     1.859550744222    -0.759829719200     1.007825032230
         H           -0.001707737905     1.859550744222     0.759829719200     1.007825032230
         O           -0.000045712624    -1.504508874478     0.000000000000    15.994914619570

  Charge       = 0
  Multiplicity = 3
  Basis Set: AUG-CC-PVTZ
    Blend: AUG-CC-PVTZ

    Orbital Energies [Eh]
    ---------------------

    Alpha Occupied:

       1Ap   -20.684529     2Ap   -20.571199     3Ap    -1.393949
       4Ap    -1.355274     1App   -0.718712     5Ap    -0.688198
       6Ap    -0.685251     7Ap    -0.586446     2App   -0.586261
       8Ap    -0.513967

    Alpha Virtual:

       9Ap     0.029553     3App    0.047672    10Ap     0.118599
      11Ap     0.154050    12Ap     0.159471     4App    0.180289
       5App    0.186920    13Ap     0.192748    14Ap     0.198009
       6App    0.263683     7App    0.264072    15Ap     0.264765
      16Ap     0.314355    17Ap     0.326715    18Ap     0.376041
       8App    0.380350    19Ap     0.449979     9App    0.464332
      10App    0.599990    20Ap     0.643615    21Ap     0.647420
      11App    0.658158    22Ap     0.666514    23Ap     0.696151
      12App    0.721687    13App    0.722513    24Ap     0.767507
      25Ap     0.792753    26Ap     0.818540    27Ap     0.837801
      28Ap     0.861026    29Ap     0.901226    14App    0.918619
      15App    0.924715    16App    0.946260    17App    0.979677
      30Ap     0.989715    31Ap     1.012613    32Ap     1.046345
      18App    1.051366    33Ap     1.121924    19App    1.176714
      34Ap     1.191614    20App    1.198748    21App    1.326820
      35Ap     1.336496    36Ap     1.443287    22App    1.507250
      37Ap     1.594008    38Ap     1.666487    39Ap     1.812433
      23App    1.822052    24App    1.976757    40Ap     2.040756
      41Ap     2.047759    25App    2.054050    26App    2.056759
      42Ap     2.058909    43Ap     2.079167    44Ap     2.114900
      27App    2.118691    28App    2.135178    45Ap     2.140239
      46Ap     2.145201    47Ap     2.252109    29App    2.267143
      48Ap     2.303362    30App    2.311825    49Ap     2.434019
      50Ap     2.470086    31App    2.482254    51Ap     2.486234
      52Ap     2.695599    53Ap     2.715936    32App    2.720830
      54Ap     2.839922    33App    2.862083    34App    2.880093
      35App    3.690613    55Ap     3.753155    36App    4.013186
      56Ap     4.079381    57Ap     4.099244    58Ap     4.139921
      37App    4.183225    38App    4.281024    59Ap     4.289267
      60Ap     4.350910    39App    4.381631    61Ap     4.427328
      62Ap     4.451012    40App    4.515217    63Ap     4.788489
      41App    4.839438    42App    5.141315    43App    5.144032
      44App    5.247812    64Ap     5.339492    65Ap     5.515821
      66Ap     5.683774    67Ap     6.198387    68Ap     6.388925
      69Ap     6.408846    45App    6.410138    46App    6.423576
      70Ap     6.435491    47App    6.485538    71Ap     6.535690
      48App    6.581821    72Ap     6.716106    73Ap     6.902272
      74Ap     6.905560    49App    6.924506    75Ap     6.939617
      50App    6.985624    76Ap     7.046577    77Ap     7.134790
      78Ap     7.277991    51App    7.305835    52App    7.308478
      53App    7.352278    79Ap     7.437878    80Ap     7.542039
      81Ap     7.908604    54App    7.915290    55App    8.804299
      82Ap     8.860231    83Ap    15.769451

    Beta Occupied:

       1Ap   -20.605663     2Ap   -20.570738     3Ap    -1.354588
       4Ap    -1.051143     1App   -0.718384     5Ap    -0.588175
       6Ap    -0.513308     2App   -0.495680

    Beta Virtual:

       7Ap     0.029392     3App    0.047752     8Ap     0.086504
       9Ap     0.091923    10Ap     0.140939    11Ap     0.167037
      12Ap     0.170627     4App    0.180919     5App    0.190508
      13Ap     0.225534    14Ap     0.253278     6App    0.263701
       7App    0.264504    15Ap     0.288394    16Ap     0.316746
      17Ap     0.328018     8App    0.380522    18Ap     0.386387
      19Ap     0.451064     9App    0.464527    10App    0.601607
      20Ap     0.660467    21Ap     0.667433    11App    0.672580
      22Ap     0.673626    23Ap     0.713389    12App    0.722165
      13App    0.734712    24Ap     0.778773    25Ap     0.806053
      26Ap     0.846937    27Ap     0.850667    14App    0.925101
      28Ap     0.928060    15App    0.936369    16App    0.953319
      17App    0.983417    29Ap     0.986615    30Ap     0.996887
      18App    1.052476    31Ap     1.052492    32Ap     1.060426
      33Ap     1.137952    19App    1.176910    34Ap     1.193105
      20App    1.201474    21App    1.329215    35Ap     1.393130
      36Ap     1.482665    22App    1.507667    37Ap     1.595978
      38Ap     1.696643    39Ap     1.817454    23App    1.822387
      24App    1.978147    40Ap     2.070277    41Ap     2.070815
      25App    2.071475    26App    2.081399    42Ap     2.099447
      43Ap     2.100306    44Ap     2.155516    27App    2.180876
      28App    2.201913    45Ap     2.207661    46Ap     2.258254
      47Ap     2.308891    29App    2.311954    30App    2.318951
      48Ap     2.319206    49Ap     2.441854    50Ap     2.483151
      31App    2.485134    51Ap     2.514767    52Ap     2.702975
      53Ap     2.717639    32App    2.721731    54Ap     2.852043
      33App    2.862264    34App    2.880126    35App    3.691481
      55Ap     3.753289    36App    4.013214    56Ap     4.081704
      57Ap     4.172073    37App    4.218709    58Ap     4.259602
      38App    4.292021    59Ap     4.294007    39App    4.381737
      60Ap     4.426191    61Ap     4.456076    62Ap     4.467778
      40App    4.515293    63Ap     4.799268    41App    4.839593
      42App    5.141493    43App    5.144106    44App    5.248218
      64Ap     5.340138    65Ap     5.515931    66Ap     5.688276
      67Ap     6.200039    68Ap     6.485597    45App    6.486967
      46App    6.487752    69Ap     6.493070    70Ap     6.499206
      47App    6.521134    71Ap     6.607344    48App    6.609758
      72Ap     6.722967    73Ap     6.955026    49App    7.038058
      74Ap     7.041919    75Ap     7.084835    50App    7.097485
      76Ap     7.135191    77Ap     7.173946    78Ap     7.282127
      51App    7.306101    52App    7.308663    53App    7.352689
      79Ap     7.440636    80Ap     7.543112    81Ap     7.909164
      54App    7.915637    55App    8.804668    82Ap     8.939655
      83Ap    15.769767

    Final Occupation by Irrep:
             Ap   App
    DOCC [     6,    2 ]
    SOCC [     2,    0 ]

  @UHF Final Energy:  -150.87352422770505

   => Energetics <=

    Nuclear Repulsion Energy =             23.8138437729546304
    One-Electron Energy =                -255.6932740708184895
    Two-Electron Energy =                  81.0059060701588010
    Total Energy =                       -150.8735242277050475

  UHF NO Occupations:
  HONO-2 :    6 Ap 1.9970493
  HONO-1 :    7 Ap 1.0000000
  HONO-0 :    8 Ap 1.0000000
  LUNO+0 :    9 Ap 0.0029507
  LUNO+1 :    3App 0.0017949
  LUNO+2 :   10 Ap 0.0000216
  LUNO+3 :   11 Ap 0.0000024

Computation Completed

Properties will be evaluated at   0.000000,   0.000000,   0.000000 [a0]

Properties computed using the SCF density matrix

  Nuclear Dipole Moment: [e a0]
     X:    -0.0032      Y:     3.4854      Z:     0.0000

  Electronic Dipole Moment: [e a0]
     X:     0.0006      Y:    -2.6490      Z:     0.0000

  Dipole Moment: [e a0]
     X:    -0.0026      Y:     0.8364      Z:     0.0000     Total:     0.8364

  Dipole Moment: [D]
     X:    -0.0066      Y:     2.1259      Z:     0.0000     Total:     2.1259

*** tstop() called on d2-13.compute.lan at Wed Mar 10 10:56:02 2021
Module time:
	user time   =      40.92 seconds =       0.68 minutes
	system time =       1.72 seconds =       0.03 minutes
	total time  =          4 seconds =       0.07 minutes
Total time:
	user time   =      40.92 seconds =       0.68 minutes
	system time =       1.72 seconds =       0.03 minutes
	total time  =          4 seconds =       0.07 minutes
 MINTS: Wrapper to libmints.
   by Justin Turney

   Calculation information:
      Number of threads:                12
      Number of atoms:                   4
      Number of AO shells:              46
      Number of SO shells:              37
      Number of primitives:             82
      Number of atomic orbitals:       160
      Number of basis functions:       138

      Number of irreps:                  2
      Integral cutoff                 0.00e+00
      Number of functions per irrep: [  83   55 ]

 OEINTS: Overlap, kinetic, potential, dipole, and quadrupole integrals
         stored in file 35.

      Computing two-electron integrals...done
      Computed 22618333 non-zero two-electron integrals.
        Stored in file 33.

*** tstart() called on d2-13.compute.lan
*** at Wed Mar 10 10:56:06 2021

	Wfn Parameters:
	--------------------
	Wavefunction         = CCSD_T
	Number of irreps     = 2
	Number of MOs        = 138
	Number of active MOs = 136
	AO-Basis             = NONE
	Semicanonical        = false
	Reference            = UHF
	Print Level          = 1

	IRREP	# MOs	# FZDC	# DOCC	# SOCC	# VIRT	# FZVR
	-----	-----	------	------	------	------	------
	 Ap	   83	    2	    4	    2	    75	    0
	 App	   55	    0	    2	    0	    53	    0
	Transforming integrals...
	IWL integrals will be deleted.
	(OO|OO)...
	Presorting SO-basis two-electron integrals.
	Sorting File: SO Ints (nn|nn) nbuckets = 1
	Transforming the one-electron integrals and constructing Fock matrices
	Starting AA/AB first half-transformation.
	Sorting AA/AB half-transformed integrals.
	Starting BB first half-transformation.
	Sorting BB half-transformed integrals.
	First half integral transformation complete.
	Starting AA second half-transformation.
	Starting AB second half-transformation.
	Starting BB second half-transformation.
	Two-electron integral transformation complete.
	(OO|OV)...
	Starting AA second half-transformation.
	Starting AB second half-transformation.
	Starting BB second half-transformation.
	Two-electron integral transformation complete.
	(OO|VV)...
	Starting AA second half-transformation.
	Starting AB second half-transformation.
	Starting BB second half-transformation.
	Two-electron integral transformation complete.
	(OV|OO)...
	Starting AA/AB first half-transformation.
	Sorting AA/AB half-transformed integrals.
	Starting BB first half-transformation.
	Sorting BB half-transformed integrals.
	First half integral transformation complete.
	Starting AA second half-transformation.
	Starting AB second half-transformation.
	Starting BB second half-transformation.
	Two-electron integral transformation complete.
	(OV|OV)...
	Starting AA second half-transformation.
	Starting AB second half-transformation.
	Starting BB second half-transformation.
	Two-electron integral transformation complete.
	(OV|VV)...
	Starting AA second half-transformation.
	Starting AB second half-transformation.
	Starting BB second half-transformation.
	Two-electron integral transformation complete.
	(VV|OO)...
	Starting AA/AB first half-transformation.
	Sorting AA/AB half-transformed integrals.
	Starting BB first half-transformation.
	Sorting BB half-transformed integrals.
	First half integral transformation complete.
	Starting AA second half-transformation.
	Starting AB second half-transformation.
	Starting BB second half-transformation.
	Two-electron integral transformation complete.
	(VV|OV)...
	Starting AA second half-transformation.
	Starting AB second half-transformation.
	Starting BB second half-transformation.
	Two-electron integral transformation complete.
	(VV|VV)...
	Starting AA second half-transformation.
	Starting AB second half-transformation.
	Starting BB second half-transformation.
	Two-electron integral transformation complete.
	Frozen core energy     =   -126.36576895619942

	Size of irrep 0 of <AB|CD> integrals:     17.247 (MW) /    137.979 (MB)
	Size of irrep 1 of <AB|CD> integrals:     15.801 (MW) /    126.405 (MB)
	Total:                                    33.048 (MW) /    264.384 (MB)

	Size of irrep 0 of <ab|cd> integrals:     18.524 (MW) /    148.195 (MB)
	Size of irrep 1 of <ab|cd> integrals:     16.655 (MW) /    133.236 (MB)
	Total:                                    35.179 (MW) /    281.432 (MB)

	Size of irrep 0 of <Ab|Cd> integrals:     73.685 (MW) /    589.480 (MB)
	Size of irrep 1 of <Ab|Cd> integrals:     64.899 (MW) /    519.193 (MB)
	Total:                                   138.584 (MW) /   1108.674 (MB)

	Size of irrep 0 of <IA|BC> integrals:      4.689 (MW) /     37.514 (MB)
	Size of irrep 1 of <IA|BC> integrals:      3.721 (MW) /     29.765 (MB)
	Total:                                     8.410 (MW) /     67.279 (MB)

	Size of irrep 0 of <ia|bc> integrals:      3.618 (MW) /     28.940 (MB)
	Size of irrep 1 of <ia|bc> integrals:      2.987 (MW) /     23.898 (MB)
	Total:                                     6.605 (MW) /     52.839 (MB)

	Size of irrep 0 of <Ia|Bc> integrals:      4.876 (MW) /     39.006 (MB)
	Size of irrep 1 of <Ia|Bc> integrals:      3.802 (MW) /     30.419 (MB)
	Total:                                     8.678 (MW) /     69.425 (MB)

	Size of irrep 0 of <iA|bC> integrals:      3.485 (MW) /     27.881 (MB)
	Size of irrep 1 of <iA|bC> integrals:      2.916 (MW) /     23.330 (MB)
	Total:                                     6.401 (MW) /     51.211 (MB)

	Size of irrep 0 of tIjAb amplitudes:       0.240 (MW) /      1.923 (MB)
	Size of irrep 1 of tIjAb amplitudes:       0.161 (MW) /      1.289 (MB)
	Total:                                     0.401 (MW) /      3.212 (MB)

	Nuclear Rep. energy          =     23.81384377295463
	SCF energy                   =   -150.87352422770505
	One-electron energy          =    -85.39386449416438
	Two-electron (AA) energy     =     10.36146360678019
	Two-electron (BB) energy     =      5.46567340434957
	Two-electron (AB) energy     =     21.24512843857316
	Two-electron energy          =     37.07226544970292
	Reference energy             =   -150.87352422770624

*** tstop() called on d2-13.compute.lan at Wed Mar 10 10:57:02 2021
Module time:
	user time   =     354.34 seconds =       5.91 minutes
	system time =      26.42 seconds =       0.44 minutes
	total time  =         56 seconds =       0.93 minutes
Total time:
	user time   =     401.84 seconds =       6.70 minutes
	system time =      28.99 seconds =       0.48 minutes
	total time  =         64 seconds =       1.07 minutes
            **************************
            *                        *
            *        CCENERGY        *
            *                        *
            **************************

    Nuclear Rep. energy (wfn)     =   23.813843772954630
    SCF energy          (wfn)     = -150.873524227705047
    Reference energy    (file100) = -150.873524227706241

    Input parameters:
    -----------------
    Wave function   =     CCSD_T
    Reference wfn   =     UHF
    Brueckner       =     No
    Memory (Mbytes) =     4000.0
    Maxiter         =     50
    R_Convergence   =     1.0e-10
    E_Convergence   =     1.0e-10
    Restart         =     Yes
    DIIS            =     Yes
    AO Basis        =     NONE
    ABCD            =     NEW
    Cache Level     =     2
    Cache Type      =     LRU
    Print Level     =     1
    Num. of threads =     12
    # Amps to Print =     10
    Print MP2 Amps? =     No
    Analyze T2 Amps =     No
    Print Pair Ener =     No
    Local CC        =     No
    SCS-MP2         =     False
    SCSN-MP2        =     False
    SCS-CCSD        =     False

MP2 correlation energy -0.4162744493765705
                Solving CC Amplitude Equations
                ------------------------------
  Iter             Energy              RMS        T1Diag      D1Diag    New D1Diag    D2Diag
  ----     ---------------------    ---------   ----------  ----------  ----------   --------
     0        -0.416274449376571    0.000e+00    0.000000    0.000000    0.000000    0.000000
     1        -0.427054439697705    5.698e-02    0.010579    0.000000    0.000000    0.000000
     2        -0.435151591506365    1.703e-02    0.011073    0.000000    0.000000    0.000000
     3        -0.437303101652448    8.772e-03    0.012994    0.000000    0.000000    0.000000
     4        -0.437176686340823    2.680e-03    0.013403    0.000000    0.000000    0.000000
     5        -0.437167196309365    1.394e-03    0.013595    0.000000    0.000000    0.000000
     6        -0.437196260011066    5.294e-04    0.013621    0.000000    0.000000    0.000000
     7        -0.437199233841332    2.145e-04    0.013615    0.000000    0.000000    0.000000
     8        -0.437200173873315    6.677e-05    0.013611    0.000000    0.000000    0.000000
     9        -0.437200859182627    2.385e-05    0.013610    0.000000    0.000000    0.000000
    10        -0.437199960053420    9.218e-06    0.013610    0.000000    0.000000    0.000000
    11        -0.437200125609272    3.999e-06    0.013610    0.000000    0.000000    0.000000
    12        -0.437200085919584    1.445e-06    0.013610    0.000000    0.000000    0.000000
    13        -0.437200093839302    7.300e-07    0.013610    0.000000    0.000000    0.000000
    14        -0.437200116393210    3.045e-07    0.013610    0.000000    0.000000    0.000000
    15        -0.437200118091005    1.110e-07    0.013610    0.000000    0.000000    0.000000
    16        -0.437200118662262    4.969e-08    0.013610    0.000000    0.000000    0.000000
    17        -0.437200119240030    1.915e-08    0.013610    0.000000    0.000000    0.000000
    18        -0.437200119097415    9.948e-09    0.013610    0.000000    0.000000    0.000000
    19        -0.437200118889576    3.931e-09    0.013610    0.000000    0.000000    0.000000
    20        -0.437200118878909    2.123e-09    0.013610    0.000000    0.000000    0.000000
    21        -0.437200118855628    8.114e-10    0.013610    0.000000    0.000000    0.000000
    22        -0.437200118854084    3.263e-10    0.013610    0.000000    0.000000    0.000000
    23        -0.437200118853130    1.694e-10    0.013610    0.000000    0.000000    0.000000
    24        -0.437200118852972    6.953e-11    0.013610    0.000000    0.000000    0.000000

    Iterations converged.

    Largest TIA Amplitudes:
              5   2         0.0133334695
              5   8         0.0111750107
              7  77         0.0103642649
              5   4         0.0097198964
              3   2         0.0074626834
              4   1         0.0074080379
              2   5         0.0072092612

      * MP2 total energy                      = -151.289798677082814
      * CCSD total energy                     = -151.310724346559226
      * CCSD(T) total energy                     = -151.323017328070563
*** Psi4 exiting successfully. Buy a developer a beer!
