                               Psi4 1.3.2 release

  ==> Input File <==

--------------------------------------------------------------------------
memory 4 GB

molecule  {
0 3
O   -1.506400547086   -0.018463005014    0.000000000000
H   -0.548253272061    0.063305715494    0.000000000000
H   -1.821243791691    0.889529836384    0.000000000000
O    1.655700403412   -0.041574297067    0.000000000000
}
set {
basis aug-cc-pvtz
reference uhf
e_convergence 10
scf_type pk
freeze_core true
}

set ccenergy {
e_convergence 10
r_convergence 10
}

e = energy('ccsd(t)')

print_out('Stephenergy {}'.format(e))

--------------------------------------------------------------------------

    Molecular point group: cs

    Geometry (in Angstrom), charge = 0, multiplicity = 3:

       Center              X                  Y                   Z               Mass
    ------------   -----------------  -----------------  -----------------  -----------------
         O           -1.506400547086    -0.018463005014     0.000000000000    15.994914619570
         H           -0.548253272061     0.063305715494     0.000000000000     1.007825032230
         H           -1.821243791691     0.889529836384     0.000000000000     1.007825032230
         O            1.655700403412    -0.041574297067     0.000000000000    15.994914619570

  Charge       = 0
  Multiplicity = 3
  Basis Set: AUG-CC-PVTZ
    Blend: AUG-CC-PVTZ

    Orbital Energies [Eh]
    ---------------------

    Alpha Occupied:

       1Ap   -20.734571     2Ap   -20.558214     3Ap    -1.443955
       4Ap    -1.343079     5Ap    -0.734526     1App   -0.734296
       6Ap    -0.710072     7Ap    -0.636228     8Ap    -0.574895
       2App   -0.501591

    Alpha Virtual:

       9Ap     0.034464    10Ap     0.053396    11Ap     0.127528
       3App    0.131998    12Ap     0.148104    13Ap     0.160999
      14Ap     0.183701     4App    0.186703    15Ap     0.213496
      16Ap     0.242166    17Ap     0.268910     5App    0.284308
      18Ap     0.298161     6App    0.322725    19Ap     0.370349
      20Ap     0.398776    21Ap     0.460586    22Ap     0.563515
       7App    0.600811    23Ap     0.608696    24Ap     0.637521
      25Ap     0.672273    26Ap     0.713596     8App    0.714334
       9App    0.735099    10App    0.748128    27Ap     0.764737
      28Ap     0.807610    11App    0.825121    29Ap     0.844466
      30Ap     0.874071    12App    0.886877    31Ap     0.925188
      13App    0.944323    32Ap     0.945787    33Ap     0.953974
      14App    0.979677    34Ap     0.983101    35Ap     1.044217
      36Ap     1.129069    15App    1.169069    37Ap     1.169549
      38Ap     1.194388    39Ap     1.270400    16App    1.279247
      40Ap     1.325569    17App    1.528681    41Ap     1.568897
      18App    1.601098    42Ap     1.700363    43Ap     1.817844
      44Ap     1.834021    19App    1.976153    45Ap     1.976163
      46Ap     1.987637    20App    2.011992    47Ap     2.017526
      21App    2.050684    48Ap     2.062389    22App    2.125556
      49Ap     2.164242    50Ap     2.176666    23App    2.215095
      24App    2.299025    51Ap     2.316267    52Ap     2.329251
      53Ap     2.417033    25App    2.453247    54Ap     2.460764
      55Ap     2.523048    26App    2.526930    56Ap     2.637317
      57Ap     2.698613    27App    2.728716    58Ap     2.748616
      59Ap     2.860751    60Ap     2.937655    28App    2.946598
      61Ap     3.700199    62Ap     3.901264    29App    4.038110
      30App    4.060375    63Ap     4.074122    31App    4.178067
      64Ap     4.206022    65Ap     4.274172    32App    4.299335
      66Ap     4.390138    33App    4.393102    67Ap     4.436912
      34App    4.438079    68Ap     4.588968    69Ap     4.783061
      70Ap     4.967993    35App    5.157534    71Ap     5.180837
      72Ap     5.304503    73Ap     5.386139    36App    5.529951
      74Ap     5.692169    75Ap     6.197187    37App    6.310719
      76Ap     6.310751    38App    6.374648    77Ap     6.377417
      39App    6.524612    78Ap     6.524960    79Ap     6.561823
      80Ap     6.641249    40App    6.729105    81Ap     6.812871
      41App    6.819125    82Ap     6.920141    42App    6.935789
      83Ap     6.966921    84Ap     7.051279    43App    7.149520
      44App    7.274997    85Ap     7.323232    45App    7.330138
      86Ap     7.363629    46App    7.442899    87Ap     7.658612
      88Ap     7.947909    89Ap     7.969670    90Ap     8.816353
      91Ap     9.476925    92Ap    16.500438

    Beta Occupied:

       1Ap   -20.655787     2Ap   -20.558356     3Ap    -1.343704
       4Ap    -1.101508     5Ap    -0.709027     6Ap    -0.581065
       7Ap    -0.541976     1App   -0.501643

    Beta Virtual:

       8Ap     0.034340     9Ap     0.047489     2App    0.048120
      10Ap     0.056266    11Ap     0.144380    12Ap     0.151596
       3App    0.160728    13Ap     0.179161    14Ap     0.208925
      15Ap     0.221425     4App    0.226325    16Ap     0.251654
      17Ap     0.270649     5App    0.284576    18Ap     0.300341
       6App    0.326712    19Ap     0.374316    20Ap     0.410028
      21Ap     0.461489    22Ap     0.566888     7App    0.633157
      23Ap     0.637094    24Ap     0.641972    25Ap     0.675947
      26Ap     0.714145     8App    0.727303     9App    0.737141
      10App    0.749760    27Ap     0.784549    28Ap     0.819497
      29Ap     0.853632    11App    0.868148    30Ap     0.920234
      12App    0.940005    31Ap     0.944120    13App    0.948935
      32Ap     0.954242    33Ap     0.971663    34Ap     1.017451
      14App    1.023108    35Ap     1.048240    36Ap     1.157854
      15App    1.172561    37Ap     1.176550    38Ap     1.218476
      39Ap     1.272996    16App    1.290031    40Ap     1.335427
      17App    1.529472    41Ap     1.573198    18App    1.602719
      42Ap     1.726976    43Ap     1.823818    44Ap     1.842966
      45Ap     1.995006    19App    2.014200    46Ap     2.014258
      20App    2.055245    47Ap     2.067144    21App    2.174055
      48Ap     2.178173    22App    2.179918    49Ap     2.204975
      50Ap     2.242862    23App    2.251911    24App    2.301528
      51Ap     2.324196    52Ap     2.348419    53Ap     2.422754
      25App    2.455487    54Ap     2.461526    55Ap     2.529704
      26App    2.535748    56Ap     2.644103    57Ap     2.709473
      27App    2.730037    58Ap     2.758011    59Ap     2.863722
      60Ap     2.941224    28App    2.947261    61Ap     3.700754
      62Ap     3.904148    29App    4.038979    30App    4.148698
      63Ap     4.183462    64Ap     4.244945    31App    4.259592
      65Ap     4.292499    32App    4.299456    33App    4.393226
      66Ap     4.400779    34App    4.439243    67Ap     4.473826
      68Ap     4.590418    69Ap     4.784365    70Ap     4.970245
      35App    5.157526    71Ap     5.181304    72Ap     5.304757
      73Ap     5.387361    36App    5.530046    74Ap     5.692709
      75Ap     6.197885    37App    6.419640    76Ap     6.419647
      38App    6.449900    77Ap     6.452658    78Ap     6.533396
      39App    6.579062    79Ap     6.609534    80Ap     6.686729
      40App    6.734110    81Ap     6.922275    41App    7.004740
      82Ap     7.005992    42App    7.044471    83Ap     7.071962
      84Ap     7.131135    43App    7.151833    44App    7.275372
      85Ap     7.323455    45App    7.330952    86Ap     7.364211
      46App    7.443337    87Ap     7.659687    88Ap     7.948590
      89Ap     7.969879    90Ap     8.818547    91Ap     9.551482
      92Ap    16.500919

    Final Occupation by Irrep:
             Ap   App
    DOCC [     7,    1 ]
    SOCC [     1,    1 ]

  @UHF Final Energy:  -150.87444559194634

   => Energetics <=

    Nuclear Repulsion Energy =             22.9610028752634321
    One-Electron Energy =                -253.7064043787340779
    Two-Electron Energy =                  79.8709559115243053
    Total Energy =                       -150.8744455919463405

  UHF NO Occupations:
  HONO-2 :    7 Ap 1.9970279
  HONO-1 :    2App 1.0000000
  HONO-0 :    8 Ap 1.0000000
  LUNO+0 :    9 Ap 0.0029721
  LUNO+1 :   10 Ap 0.0017110
  LUNO+2 :   11 Ap 0.0000024
  LUNO+3 :   12 Ap 0.0000019

Computation Completed

Properties will be evaluated at   0.000000,   0.000000,   0.000000 [a0]

Properties computed using the SCF density matrix

  Nuclear Dipole Moment: [e a0]
     X:    -2.2206      Y:     0.8930      Z:     0.0000

  Electronic Dipole Moment: [e a0]
     X:     2.7440      Y:    -0.2472      Z:     0.0000

  Dipole Moment: [e a0]
     X:     0.5234      Y:     0.6457      Z:     0.0000     Total:     0.8312

  Dipole Moment: [D]
     X:     1.3303      Y:     1.6413      Z:     0.0000     Total:     2.1127

*** tstop() called on c5-3.compute.lan at Tue Mar  9 15:19:07 2021
Module time:
	user time   =      62.99 seconds =       1.05 minutes
	system time =       0.90 seconds =       0.02 minutes
	total time  =          6 seconds =       0.10 minutes
Total time:
	user time   =      62.99 seconds =       1.05 minutes
	system time =       0.90 seconds =       0.02 minutes
	total time  =          6 seconds =       0.10 minutes
 MINTS: Wrapper to libmints.
   by Justin Turney

   Calculation information:
      Number of threads:                12
      Number of atoms:                   4
      Number of AO shells:              46
      Number of SO shells:              46
      Number of primitives:             82
      Number of atomic orbitals:       160
      Number of basis functions:       138

      Number of irreps:                  2
      Integral cutoff                 0.00e+00
      Number of functions per irrep: [  92   46 ]

 OEINTS: Overlap, kinetic, potential, dipole, and quadrupole integrals
         stored in file 35.

      Computing two-electron integrals...done
      Computed 22932110 non-zero two-electron integrals.
        Stored in file 33.

*** tstart() called on c5-3.compute.lan
*** at Tue Mar  9 15:19:10 2021

	Wfn Parameters:
	--------------------
	Wavefunction         = CCSD_T
	Number of irreps     = 2
	Number of MOs        = 138
	Number of active MOs = 136
	AO-Basis             = NONE
	Semicanonical        = false
	Reference            = UHF
	Print Level          = 1

	IRREP	# MOs	# FZDC	# DOCC	# SOCC	# VIRT	# FZVR
	-----	-----	------	------	------	------	------
	 Ap	   92	    2	    5	    1	    84	    0
	 App	   46	    0	    1	    1	    44	    0
	Transforming integrals...
	IWL integrals will be deleted.
	(OO|OO)...
	Presorting SO-basis two-electron integrals.
	Sorting File: SO Ints (nn|nn) nbuckets = 1
	Transforming the one-electron integrals and constructing Fock matrices
	Starting AA/AB first half-transformation.
	Sorting AA/AB half-transformed integrals.
	Starting BB first half-transformation.
	Sorting BB half-transformed integrals.
	First half integral transformation complete.
	Starting AA second half-transformation.
	Starting AB second half-transformation.
	Starting BB second half-transformation.
	Two-electron integral transformation complete.
	(OO|OV)...
	Starting AA second half-transformation.
	Starting AB second half-transformation.
	Starting BB second half-transformation.
	Two-electron integral transformation complete.
	(OO|VV)...
	Starting AA second half-transformation.
	Starting AB second half-transformation.
	Starting BB second half-transformation.
	Two-electron integral transformation complete.
	(OV|OO)...
	Starting AA/AB first half-transformation.
	Sorting AA/AB half-transformed integrals.
	Starting BB first half-transformation.
	Sorting BB half-transformed integrals.
	First half integral transformation complete.
	Starting AA second half-transformation.
	Starting AB second half-transformation.
	Starting BB second half-transformation.
	Two-electron integral transformation complete.
	(OV|OV)...
	Starting AA second half-transformation.
	Starting AB second half-transformation.
	Starting BB second half-transformation.
	Two-electron integral transformation complete.
	(OV|VV)...
	Starting AA second half-transformation.
	Starting AB second half-transformation.
	Starting BB second half-transformation.
	Two-electron integral transformation complete.
	(VV|OO)...
	Starting AA/AB first half-transformation.
	Sorting AA/AB half-transformed integrals.
	Starting BB first half-transformation.
	Sorting BB half-transformed integrals.
	First half integral transformation complete.
	Starting AA second half-transformation.
	Starting AB second half-transformation.
	Starting BB second half-transformation.
	Two-electron integral transformation complete.
	(VV|OV)...
	Starting AA second half-transformation.
	Starting AB second half-transformation.
	Starting BB second half-transformation.
	Two-electron integral transformation complete.
	(VV|VV)...
	Starting AA second half-transformation.
	Starting AB second half-transformation.
	Starting BB second half-transformation.
	Two-electron integral transformation complete.
	Frozen core energy     =   -125.87218694162623

	Size of irrep 0 of <AB|CD> integrals:     19.643 (MW) /    157.141 (MB)
	Size of irrep 1 of <AB|CD> integrals:     13.660 (MW) /    109.283 (MB)
	Total:                                    33.303 (MW) /    266.424 (MB)

	Size of irrep 0 of <ab|cd> integrals:     20.794 (MW) /    166.349 (MB)
	Size of irrep 1 of <ab|cd> integrals:     14.631 (MW) /    117.045 (MB)
	Total:                                    35.424 (MW) /    283.394 (MB)

	Size of irrep 0 of <Ab|Cd> integrals:     83.174 (MW) /    665.395 (MB)
	Size of irrep 1 of <Ab|Cd> integrals:     56.550 (MW) /    452.403 (MB)
	Total:                                   139.725 (MW) /   1117.798 (MB)

	Size of irrep 0 of <IA|BC> integrals:      5.323 (MW) /     42.586 (MB)
	Size of irrep 1 of <IA|BC> integrals:      3.193 (MW) /     25.547 (MB)
	Total:                                     8.517 (MW) /     68.133 (MB)

	Size of irrep 0 of <ia|bc> integrals:      4.348 (MW) /     34.780 (MB)
	Size of irrep 1 of <ia|bc> integrals:      2.372 (MW) /     18.972 (MB)
	Total:                                     6.719 (MW) /     53.752 (MB)

	Size of irrep 0 of <Ia|Bc> integrals:      5.472 (MW) /     43.776 (MB)
	Size of irrep 1 of <Ia|Bc> integrals:      3.309 (MW) /     26.470 (MB)
	Total:                                     8.781 (MW) /     70.246 (MB)

	Size of irrep 0 of <iA|bC> integrals:      4.232 (MW) /     33.853 (MB)
	Size of irrep 1 of <iA|bC> integrals:      2.286 (MW) /     18.289 (MB)
	Total:                                     6.518 (MW) /     52.142 (MB)

	Size of irrep 0 of tIjAb amplitudes:       0.292 (MW) /      2.335 (MB)
	Size of irrep 1 of tIjAb amplitudes:       0.120 (MW) /      0.963 (MB)
	Total:                                     0.412 (MW) /      3.297 (MB)

	Nuclear Rep. energy          =     22.96100287526343
	SCF energy                   =   -150.87444559194634
	One-electron energy          =    -84.46895840895689
	Two-electron (AA) energy     =     10.14507857970815
	Two-electron (BB) energy     =      5.39797457799443
	Two-electron (AB) energy     =     20.96264372566943
	Two-electron energy          =     36.50569688337201
	Reference energy             =   -150.87444559194768

*** tstop() called on c5-3.compute.lan at Tue Mar  9 15:19:42 2021
Module time:
	user time   =     106.74 seconds =       1.78 minutes
	system time =      16.36 seconds =       0.27 minutes
	total time  =         32 seconds =       0.53 minutes
Total time:
	user time   =     176.13 seconds =       2.94 minutes
	system time =      17.87 seconds =       0.30 minutes
	total time  =         41 seconds =       0.68 minutes
            **************************
            *                        *
            *        CCENERGY        *
            *                        *
            **************************

    Nuclear Rep. energy (wfn)     =   22.961002875263432
    SCF energy          (wfn)     = -150.874445591946341
    Reference energy    (file100) = -150.874445591947676

    Input parameters:
    -----------------
    Wave function   =     CCSD_T
    Reference wfn   =     UHF
    Brueckner       =     No
    Memory (Mbytes) =     4000.0
    Maxiter         =     50
    R_Convergence   =     1.0e-10
    E_Convergence   =     1.0e-10
    Restart         =     Yes
    DIIS            =     Yes
    AO Basis        =     NONE
    ABCD            =     NEW
    Cache Level     =     2
    Cache Type      =     LRU
    Print Level     =     1
    Num. of threads =     12
    # Amps to Print =     10
    Print MP2 Amps? =     No
    Analyze T2 Amps =     No
    Print Pair Ener =     No
    Local CC        =     No
    SCS-MP2         =     False
    SCSN-MP2        =     False
    SCS-CCSD        =     False

MP2 correlation energy -0.4166025929117237
                Solving CC Amplitude Equations
                ------------------------------
  Iter             Energy              RMS        T1Diag      D1Diag    New D1Diag    D2Diag
  ----     ---------------------    ---------   ----------  ----------  ----------   --------
     0        -0.416602592911724    0.000e+00    0.000000    0.000000    0.000000    0.000000
     1        -0.427336200314227    5.684e-02    0.010546    0.000000    0.000000    0.000000
     2        -0.435422219610011    1.687e-02    0.011032    0.000000    0.000000    0.000000
     3        -0.437537562592455    8.572e-03    0.012904    0.000000    0.000000    0.000000
     4        -0.437412186722621    2.535e-03    0.013273    0.000000    0.000000    0.000000
     5        -0.437397111448493    1.329e-03    0.013430    0.000000    0.000000    0.000000
     6        -0.437424535152583    5.170e-04    0.013454    0.000000    0.000000    0.000000
     7        -0.437429316290269    2.701e-04    0.013449    0.000000    0.000000    0.000000
     8        -0.437429876479731    9.972e-05    0.013445    0.000000    0.000000    0.000000
     9        -0.437431280687372    7.276e-05    0.013446    0.000000    0.000000    0.000000
    10        -0.437429681025096    6.132e-05    0.013447    0.000000    0.000000    0.000000
    11        -0.437429829709033    5.796e-05    0.013449    0.000000    0.000000    0.000000
    12        -0.437429597176026    5.615e-05    0.013451    0.000000    0.000000    0.000000
    13        -0.437429594861456    5.513e-05    0.013453    0.000000    0.000000    0.000000
    14        -0.437430631654467    5.363e-05    0.013466    0.000000    0.000000    0.000000
    15        -0.437430994223756    4.835e-05    0.013523    0.000000    0.000000    0.000000
    16        -0.437430756956225    3.356e-05    0.013649    0.000000    0.000000    0.000000
    17        -0.437430427486597    1.654e-05    0.013719    0.000000    0.000000    0.000000
    18        -0.437430282616685    7.765e-06    0.013737    0.000000    0.000000    0.000000
    19        -0.437430532310511    3.439e-06    0.013742    0.000000    0.000000    0.000000
    20        -0.437430648359089    1.534e-06    0.013743    0.000000    0.000000    0.000000
    21        -0.437430656187617    6.172e-07    0.013743    0.000000    0.000000    0.000000
    22        -0.437430657617183    2.934e-07    0.013743    0.000000    0.000000    0.000000
    23        -0.437430656609920    1.517e-07    0.013743    0.000000    0.000000    0.000000
    24        -0.437430655700140    6.124e-08    0.013743    0.000000    0.000000    0.000000
    25        -0.437430656656396    3.185e-08    0.013743    0.000000    0.000000    0.000000
    26        -0.437430657124616    2.376e-08    0.013743    0.000000    0.000000    0.000000
    27        -0.437430657279581    2.210e-08    0.013743    0.000000    0.000000    0.000000
    28        -0.437430657242319    2.143e-08    0.013743    0.000000    0.000000    0.000000
    29        -0.437430657115387    2.095e-08    0.013743    0.000000    0.000000    0.000000
    30        -0.437430656879002    2.029e-08    0.013743    0.000000    0.000000    0.000000
    31        -0.437430656939483    1.827e-08    0.013743    0.000000    0.000000    0.000000
    32        -0.437430657259789    1.126e-08    0.013743    0.000000    0.000000    0.000000
    33        -0.437430657379057    5.140e-09    0.013743    0.000000    0.000000    0.000000
    34        -0.437430657449376    2.112e-09    0.013743    0.000000    0.000000    0.000000
    35        -0.437430657457773    7.972e-10    0.013743    0.000000    0.000000    0.000000
    36        -0.437430657458542    3.304e-10    0.013743    0.000000    0.000000    0.000000

      * MP2 total energy                      = -151.291048184859392
      * CCSD total energy                     = -151.311876249406026
      * CCSD(T) total energy                     = -151.324233323353184
*** Psi4 exiting successfully. Buy a developer a beer!
