                               Psi4 1.3.2 release

  ==> Input File <==

--------------------------------------------------------------------------
memory 4 GB

molecule  {
0 3
O    0.000000000000   -0.000191965470   -1.647450055281
H    0.000000000000   -0.752561848580   -1.051482130849
H   -0.000000000000    0.756002569220   -1.050552136713
O    0.000000000000   -0.000024831210    1.779897323919
}
set {
basis aug-cc-pvtz
reference uhf
e_convergence 10
scf_type pk
freeze_core true
}

set ccenergy {
e_convergence 10
r_convergence 10
}

e = energy('ccsd(t)')

print_out('Stephenergy {}'.format(e))

--------------------------------------------------------------------------

    Molecular point group: cs

    Geometry (in Angstrom), charge = 0, multiplicity = 3:

       Center              X                  Y                   Z               Mass
    ------------   -----------------  -----------------  -----------------  -----------------
         O            0.000191965470     1.647450055281     0.000000000000    15.994914619570
         H            0.752561848580     1.051482130849     0.000000000000     1.007825032230
         H           -0.756002569220     1.050552136713     0.000000000000     1.007825032230
         O            0.000024831210    -1.779897323919     0.000000000000    15.994914619570

  Charge       = 0
  Multiplicity = 3
  Basis Set: AUG-CC-PVTZ
    Blend: AUG-CC-PVTZ

    Orbital Energies [Eh]
    ---------------------

    Alpha Occupied:

       1Ap   -20.728937     2Ap   -20.563027     3Ap    -1.437918
       4Ap    -1.347014     5Ap    -0.729326     1App   -0.728944
       6Ap    -0.708099     7Ap    -0.632244     8Ap    -0.580212
       2App   -0.505365

    Alpha Virtual:

       9Ap     0.035486    10Ap     0.048544     3App    0.132102
      11Ap     0.134736    12Ap     0.148022    13Ap     0.158011
       4App    0.181127    14Ap     0.184962    15Ap     0.189279
      16Ap     0.250209    17Ap     0.257515     5App    0.266081
      18Ap     0.273455     6App    0.319691    19Ap     0.367554
      20Ap     0.382363    21Ap     0.454159    22Ap     0.471828
       7App    0.609093    23Ap     0.615717    24Ap     0.618296
      25Ap     0.619551     8App    0.640520    26Ap     0.717643
       9App    0.731078    27Ap     0.735829    10App    0.741979
      28Ap     0.800466    29Ap     0.838264    11App    0.840928
      30Ap     0.854142    12App    0.915295    31Ap     0.925249
      13App    0.934053    32Ap     0.941830    33Ap     0.958404
      14App    0.960541    34Ap     0.961978    35Ap     1.048720
      36Ap     1.054278    15App    1.122946    16App    1.185759
      37Ap     1.186467    38Ap     1.255023    39Ap     1.262099
      40Ap     1.275135    41Ap     1.345933    17App    1.511530
      18App    1.591739    42Ap     1.630946    43Ap     1.828408
      44Ap     1.829933    45Ap     1.972169    19App    1.978606
      46Ap     1.989524    47Ap     2.005355    20App    2.011057
      21App    2.026077    48Ap     2.036257    22App    2.039703
      49Ap     2.081029    50Ap     2.086168    23App    2.119596
      51Ap     2.145490    52Ap     2.260341    24App    2.278755
      25App    2.329302    53Ap     2.337000    54Ap     2.402306
      55Ap     2.487436    56Ap     2.492461    26App    2.505365
      57Ap     2.575291    58Ap     2.689283    27App    2.718692
      59Ap     2.820113    28App    2.888806    60Ap     2.901107
      61Ap     3.667076    62Ap     3.753152    29App    4.031282
      30App    4.050704    63Ap     4.084501    31App    4.101414
      64Ap     4.147564    65Ap     4.277823    32App    4.282959
      66Ap     4.366779    33App    4.383147    67Ap     4.405372
      34App    4.416489    68Ap     4.530432    69Ap     4.749223
      70Ap     4.852687    35App    5.149704    71Ap     5.164728
      72Ap     5.251143    73Ap     5.369268    36App    5.528169
      74Ap     5.674619    75Ap     6.200010    37App    6.315171
      76Ap     6.316004    38App    6.370013    77Ap     6.375199
      39App    6.402006    78Ap     6.449972    79Ap     6.479894
      80Ap     6.527657    40App    6.737243    41App    6.819138
      81Ap     6.820569    42App    6.927322    82Ap     6.930694
      83Ap     6.956750    84Ap     7.033022    43App    7.135755
      44App    7.260477    45App    7.318487    85Ap     7.342762
      86Ap     7.358012    46App    7.358167    87Ap     7.547289
      88Ap     7.899100    89Ap     7.937670    90Ap     8.529699
      91Ap     8.813285    92Ap    15.729421

    Beta Occupied:

       1Ap   -20.650372     2Ap   -20.563065     3Ap    -1.347187
       4Ap    -1.095617     5Ap    -0.708236     6Ap    -0.584303
       7Ap    -0.538526     1App   -0.505356

    Beta Virtual:

       8Ap     0.035399     9Ap     0.036605     2App    0.049905
      10Ap     0.069579    11Ap     0.140900    12Ap     0.150601
       3App    0.160421    13Ap     0.180884    14Ap     0.189595
      15Ap     0.221874     4App    0.225301    16Ap     0.259207
      17Ap     0.263108     5App    0.266394    18Ap     0.274892
       6App    0.320332    19Ap     0.370939    20Ap     0.387411
      21Ap     0.455289    22Ap     0.472358    23Ap     0.618164
      24Ap     0.620704     7App    0.641321    25Ap     0.651312
       8App    0.652630    26Ap     0.718972     9App    0.732506
      10App    0.743960    27Ap     0.747241    28Ap     0.808974
      29Ap     0.851336    11App    0.912197    12App    0.930479
      30Ap     0.930578    13App    0.935445    31Ap     0.940095
      32Ap     0.944537    33Ap     0.959355    34Ap     1.009569
      14App    1.024945    35Ap     1.049341    36Ap     1.057007
      15App    1.127970    16App    1.186463    37Ap     1.190543
      38Ap     1.268631    39Ap     1.278251    40Ap     1.280814
      41Ap     1.403600    17App    1.511636    18App    1.591840
      42Ap     1.643527    43Ap     1.829537    44Ap     1.831164
      45Ap     1.979237    19App    2.016703    46Ap     2.021378
      47Ap     2.030586    20App    2.041473    21App    2.046287
      48Ap     2.099889    49Ap     2.124832    50Ap     2.155093
      22App    2.182380    23App    2.188919    51Ap     2.195180
      24App    2.282962    52Ap     2.306367    25App    2.332232
      53Ap     2.357917    54Ap     2.413122    55Ap     2.491730
      56Ap     2.496991    26App    2.510028    57Ap     2.578294
      58Ap     2.689444    27App    2.718781    59Ap     2.820422
      28App    2.888828    60Ap     2.903136    61Ap     3.667113
      62Ap     3.753297    29App    4.031369    30App    4.100778
      63Ap     4.162208    31App    4.223501    64Ap     4.241107
      32App    4.282980    65Ap     4.291449    33App    4.383194
      66Ap     4.390845    67Ap     4.414161    34App    4.416671
      68Ap     4.530630    69Ap     4.749369    70Ap     4.852777
      35App    5.149721    71Ap     5.164733    72Ap     5.251165
      73Ap     5.369717    36App    5.528173    74Ap     5.674953
      75Ap     6.201687    37App    6.424020    76Ap     6.424708
      38App    6.446674    77Ap     6.450255    39App    6.457303
      78Ap     6.494609    79Ap     6.528713    80Ap     6.539654
      40App    6.743637    81Ap     6.930720    41App    7.008163
      82Ap     7.009962    42App    7.034758    83Ap     7.065810
      84Ap     7.114002    43App    7.136026    44App    7.260433
      45App    7.318528    85Ap     7.344829    46App    7.358226
      86Ap     7.358685    87Ap     7.547991    88Ap     7.899330
      89Ap     7.937656    90Ap     8.614827    91Ap     8.813225
      92Ap    15.729415

    Final Occupation by Irrep:
             Ap   App
    DOCC [     7,    1 ]
    SOCC [     1,    1 ]

  @UHF Final Energy:  -150.87358425312641

   => Energetics <=

    Nuclear Repulsion Energy =             21.9272811847882281
    One-Electron Energy =                -251.6479835679966754
    Two-Electron Energy =                  78.8471181300820518
    Total Energy =                       -150.8735842531264097

  UHF NO Occupations:
  HONO-2 :    7 Ap 1.9970743
  HONO-1 :    8 Ap 1.0000000
  HONO-0 :    2App 1.0000000
  LUNO+0 :    9 Ap 0.0029257
  LUNO+1 :   10 Ap 0.0016873
  LUNO+2 :   11 Ap 0.0000024
  LUNO+3 :   12 Ap 0.0000004

Computation Completed

Properties will be evaluated at   0.000000,   0.000000,   0.000000 [a0]

Properties computed using the SCF density matrix

  Nuclear Dipole Moment: [e a0]
     X:    -0.0032      Y:     1.9700      Z:     0.0000

  Electronic Dipole Moment: [e a0]
     X:     0.0013      Y:    -2.8032      Z:     0.0000

  Dipole Moment: [e a0]
     X:    -0.0019      Y:    -0.8332      Z:     0.0000     Total:     0.8332

  Dipole Moment: [D]
     X:    -0.0048      Y:    -2.1178      Z:     0.0000     Total:     2.1178

*** tstop() called on c5-20.compute.lan at Wed Mar 10 10:52:48 2021
Module time:
	user time   =      54.67 seconds =       0.91 minutes
	system time =       0.96 seconds =       0.02 minutes
	total time  =          6 seconds =       0.10 minutes
Total time:
	user time   =      54.67 seconds =       0.91 minutes
	system time =       0.96 seconds =       0.02 minutes
	total time  =          6 seconds =       0.10 minutes
 MINTS: Wrapper to libmints.
   by Justin Turney

   Calculation information:
      Number of threads:                12
      Number of atoms:                   4
      Number of AO shells:              46
      Number of SO shells:              46
      Number of primitives:             82
      Number of atomic orbitals:       160
      Number of basis functions:       138

      Number of irreps:                  2
      Integral cutoff                 0.00e+00
      Number of functions per irrep: [  92   46 ]

 OEINTS: Overlap, kinetic, potential, dipole, and quadrupole integrals
         stored in file 35.

      Computing two-electron integrals...done
      Computed 22942168 non-zero two-electron integrals.
        Stored in file 33.

*** tstart() called on c5-20.compute.lan
*** at Wed Mar 10 10:52:51 2021

	Wfn Parameters:
	--------------------
	Wavefunction         = CCSD_T
	Number of irreps     = 2
	Number of MOs        = 138
	Number of active MOs = 136
	AO-Basis             = NONE
	Semicanonical        = false
	Reference            = UHF
	Print Level          = 1

	IRREP	# MOs	# FZDC	# DOCC	# SOCC	# VIRT	# FZVR
	-----	-----	------	------	------	------	------
	 Ap	   92	    2	    5	    1	    84	    0
	 App	   46	    0	    1	    1	    44	    0
	Transforming integrals...
	IWL integrals will be deleted.
	(OO|OO)...
	Presorting SO-basis two-electron integrals.
	Sorting File: SO Ints (nn|nn) nbuckets = 1
	Transforming the one-electron integrals and constructing Fock matrices
	Starting AA/AB first half-transformation.
	Sorting AA/AB half-transformed integrals.
	Starting BB first half-transformation.
	Sorting BB half-transformed integrals.
	First half integral transformation complete.
	Starting AA second half-transformation.
	Starting AB second half-transformation.
	Starting BB second half-transformation.
	Two-electron integral transformation complete.
	(OO|OV)...
	Starting AA second half-transformation.
	Starting AB second half-transformation.
	Starting BB second half-transformation.
	Two-electron integral transformation complete.
	(OO|VV)...
	Starting AA second half-transformation.
	Starting AB second half-transformation.
	Starting BB second half-transformation.
	Two-electron integral transformation complete.
	(OV|OO)...
	Starting AA/AB first half-transformation.
	Sorting AA/AB half-transformed integrals.
	Starting BB first half-transformation.
	Sorting BB half-transformed integrals.
	First half integral transformation complete.
	Starting AA second half-transformation.
	Starting AB second half-transformation.
	Starting BB second half-transformation.
	Two-electron integral transformation complete.
	(OV|OV)...
	Starting AA second half-transformation.
	Starting AB second half-transformation.
	Starting BB second half-transformation.
	Two-electron integral transformation complete.
	(OV|VV)...
	Starting AA second half-transformation.
	Starting AB second half-transformation.
	Starting BB second half-transformation.
	Two-electron integral transformation complete.
	(VV|OO)...
	Starting AA/AB first half-transformation.
	Sorting AA/AB half-transformed integrals.
	Starting BB first half-transformation.
	Sorting BB half-transformed integrals.
	First half integral transformation complete.
	Starting AA second half-transformation.
	Starting AB second half-transformation.
	Starting BB second half-transformation.
	Two-electron integral transformation complete.
	(VV|OV)...
	Starting AA second half-transformation.
	Starting AB second half-transformation.
	Starting BB second half-transformation.
	Two-electron integral transformation complete.
	(VV|VV)...
	Starting AA second half-transformation.
	Starting AB second half-transformation.
	Starting BB second half-transformation.
	Two-electron integral transformation complete.
	Frozen core energy     =   -125.45791463279031

	Size of irrep 0 of <AB|CD> integrals:     19.643 (MW) /    157.141 (MB)
	Size of irrep 1 of <AB|CD> integrals:     13.660 (MW) /    109.283 (MB)
	Total:                                    33.303 (MW) /    266.424 (MB)

	Size of irrep 0 of <ab|cd> integrals:     20.794 (MW) /    166.349 (MB)
	Size of irrep 1 of <ab|cd> integrals:     14.631 (MW) /    117.045 (MB)
	Total:                                    35.424 (MW) /    283.394 (MB)

	Size of irrep 0 of <Ab|Cd> integrals:     83.174 (MW) /    665.395 (MB)
	Size of irrep 1 of <Ab|Cd> integrals:     56.550 (MW) /    452.403 (MB)
	Total:                                   139.725 (MW) /   1117.798 (MB)

	Size of irrep 0 of <IA|BC> integrals:      5.323 (MW) /     42.586 (MB)
	Size of irrep 1 of <IA|BC> integrals:      3.193 (MW) /     25.547 (MB)
	Total:                                     8.517 (MW) /     68.133 (MB)

	Size of irrep 0 of <ia|bc> integrals:      4.348 (MW) /     34.780 (MB)
	Size of irrep 1 of <ia|bc> integrals:      2.372 (MW) /     18.972 (MB)
	Total:                                     6.719 (MW) /     53.752 (MB)

	Size of irrep 0 of <Ia|Bc> integrals:      5.472 (MW) /     43.776 (MB)
	Size of irrep 1 of <Ia|Bc> integrals:      3.309 (MW) /     26.470 (MB)
	Total:                                     8.781 (MW) /     70.246 (MB)

	Size of irrep 0 of <iA|bC> integrals:      4.232 (MW) /     33.853 (MB)
	Size of irrep 1 of <iA|bC> integrals:      2.286 (MW) /     18.289 (MB)
	Total:                                     6.518 (MW) /     52.142 (MB)

	Size of irrep 0 of tIjAb amplitudes:       0.292 (MW) /      2.335 (MB)
	Size of irrep 1 of tIjAb amplitudes:       0.120 (MW) /      0.963 (MB)
	Total:                                     0.412 (MW) /      3.297 (MB)

	Nuclear Rep. energy          =     21.92728118478823
	SCF energy                   =   -150.87358425312641
	One-electron energy          =    -83.23755474101752
	Two-electron (AA) energy     =      9.94512479364415
	Two-electron (BB) energy     =      5.29240117335848
	Two-electron (AB) energy     =     20.65707796887878
	Two-electron energy          =     35.89460393588141
	Reference energy             =   -150.87358425313818

*** tstop() called on c5-20.compute.lan at Wed Mar 10 10:53:38 2021
Module time:
	user time   =     230.70 seconds =       3.85 minutes
	system time =      19.96 seconds =       0.33 minutes
	total time  =         47 seconds =       0.78 minutes
Total time:
	user time   =     291.55 seconds =       4.86 minutes
	system time =      21.47 seconds =       0.36 minutes
	total time  =         56 seconds =       0.93 minutes
            **************************
            *                        *
            *        CCENERGY        *
            *                        *
            **************************

    Nuclear Rep. energy (wfn)     =   21.927281184788228
    SCF energy          (wfn)     = -150.873584253126410
    Reference energy    (file100) = -150.873584253138176

    Input parameters:
    -----------------
    Wave function   =     CCSD_T
    Reference wfn   =     UHF
    Brueckner       =     No
    Memory (Mbytes) =     4000.0
    Maxiter         =     50
    R_Convergence   =     1.0e-10
    E_Convergence   =     1.0e-10
    Restart         =     Yes
    DIIS            =     Yes
    AO Basis        =     NONE
    ABCD            =     NEW
    Cache Level     =     2
    Cache Type      =     LRU
    Print Level     =     1
    Num. of threads =     12
    # Amps to Print =     10
    Print MP2 Amps? =     No
    Analyze T2 Amps =     No
    Print Pair Ener =     No
    Local CC        =     No
    SCS-MP2         =     False
    SCSN-MP2        =     False
    SCS-CCSD        =     False

MP2 correlation energy -0.4157270662436867
                Solving CC Amplitude Equations
                ------------------------------
  Iter             Energy              RMS        T1Diag      D1Diag    New D1Diag    D2Diag
  ----     ---------------------    ---------   ----------  ----------  ----------   --------
     0        -0.415727066243687    0.000e+00    0.000000    0.000000    0.000000    0.000000
     1        -0.426581340316340    5.639e-02    0.010363    0.000000    0.000000    0.000000
     2        -0.434671770049616    1.679e-02    0.010864    0.000000    0.000000    0.000000
     3        -0.436770836944378    8.409e-03    0.012680    0.000000    0.000000    0.000000
     4        -0.436646903772695    2.492e-03    0.013024    0.000000    0.000000    0.000000
     5        -0.436634878236455    1.259e-03    0.013166    0.000000    0.000000    0.000000
     6        -0.436660326501823    4.984e-04    0.013180    0.000000    0.000000    0.000000
     7        -0.436664451666200    2.245e-04    0.013170    0.000000    0.000000    0.000000
     8        -0.436665201797978    6.823e-05    0.013164    0.000000    0.000000    0.000000
     9        -0.436666417649913    2.786e-05    0.013163    0.000000    0.000000    0.000000
    10        -0.436665245899387    1.053e-05    0.013163    0.000000    0.000000    0.000000
    11        -0.436665356170898    5.195e-06    0.013163    0.000000    0.000000    0.000000
    12        -0.436665316915206    2.527e-06    0.013163    0.000000    0.000000    0.000000
    13        -0.436665310279665    1.356e-06    0.013163    0.000000    0.000000    0.000000
    14        -0.436665337037392    6.389e-07    0.013163    0.000000    0.000000    0.000000
    15        -0.436665335635786    1.793e-07    0.013163    0.000000    0.000000    0.000000
    16        -0.436665335501598    1.161e-07    0.013163    0.000000    0.000000    0.000000
    17        -0.436665336300609    5.735e-08    0.013163    0.000000    0.000000    0.000000
    18        -0.436665335873650    5.078e-08    0.013163    0.000000    0.000000    0.000000
    19        -0.436665335615939    4.893e-08    0.013163    0.000000    0.000000    0.000000
    20        -0.436665335580377    4.865e-08    0.013163    0.000000    0.000000    0.000000
    21        -0.436665335511450    4.843e-08    0.013163    0.000000    0.000000    0.000000
    22        -0.436665335476645    4.787e-08    0.013163    0.000000    0.000000    0.000000
    23        -0.436665335919745    4.596e-08    0.013163    0.000000    0.000000    0.000000
    24        -0.436665335862233    3.788e-08    0.013163    0.000000    0.000000    0.000000
    25        -0.436665335534835    2.114e-08    0.013163    0.000000    0.000000    0.000000
    26        -0.436665335563017    7.920e-09    0.013163    0.000000    0.000000    0.000000
    27        -0.436665335583700    3.584e-09    0.013163    0.000000    0.000000    0.000000
    28        -0.436665335605752    1.991e-09    0.013163    0.000000    0.000000    0.000000
    29        -0.436665335618605    7.455e-10    0.013163    0.000000    0.000000    0.000000
    30        -0.436665335615403    3.086e-10    0.013163    0.000000    0.000000    0.000000
    31        -0.436665335611568    1.247e-10    0.013163    0.000000    0.000000    0.000000
    32        -0.436665335611078    5.883e-11    0.013163    0.000000    0.000000    0.000000

    Iterations converged.

      * MP2 total energy                      = -151.289311319381852
      * CCSD total energy                     = -151.310249588749258
      * CCSD(T) total energy                     = -151.322468368669121
*** Psi4 exiting successfully. Buy a developer a beer!
