                               Psi4 1.3.2 release

  ==> Input File <==

--------------------------------------------------------------------------
memory 4 GB

molecule  {
0 3
O    0.000000000000    0.000000000000    1.259811948868
H    0.000000000000   -0.760493697200    1.850175116587
H   -0.000000000000    0.760493697200    1.850175116587
O    0.000000000000    0.000000000000   -1.492967653773
}
set {
basis aug-cc-pvtz
reference uhf
e_convergence 10
scf_type pk
freeze_core true
}

set ccenergy {
e_convergence 10
r_convergence 10
}

e = energy('ccsd(t)')

print_out('Stephenergy {}'.format(e))

--------------------------------------------------------------------------

    Molecular point group: c2v

    Geometry (in Angstrom), charge = 0, multiplicity = 3:

       Center              X                  Y                   Z               Mass
    ------------   -----------------  -----------------  -----------------  -----------------
         O           -0.000000000000     0.000000000000     1.259811948868    15.994914619570
         H            0.000000000000    -0.760493697200     1.850175116587     1.007825032230
         H           -0.000000000000     0.760493697200     1.850175116587     1.007825032230
         O           -0.000000000000     0.000000000000    -1.492967653773    15.994914619570

  Charge       = 0
  Multiplicity = 3
  Basis Set: AUG-CC-PVTZ
    Blend: AUG-CC-PVTZ

    Orbital Energies [Eh]
    ---------------------

    Alpha Occupied:

       1A1   -20.684084     2A1   -20.571477     3A1    -1.393584
       4A1    -1.354829     1B2    -0.718106     5A1    -0.688104
       1B1    -0.684852     6A1    -0.586176     2B2    -0.585861
       2B1    -0.513996

    Alpha Virtual:

       7A1     0.029540     3B2     0.047664     8A1     0.118332
       3B1     0.154262     9A1     0.159399     4B2     0.180222
       5B2     0.187250     4B1     0.192857    10A1     0.198139
       1A2     0.263680     6B2     0.264291    11A1     0.265404
      12A1     0.314391     5B1     0.326961    13A1     0.375992
       7B2     0.380377    14A1     0.449666     8B2     0.464068
       9B2     0.600045     6B1     0.644192    15A1     0.647753
       2A2     0.658222    16A1     0.666899    17A1     0.699200
       3A2     0.721843    10B2     0.724104     7B1     0.768751
      18A1     0.792671    19A1     0.820000     8B1     0.837641
      20A1     0.860354     9B1     0.901318    11B2     0.918473
       4A2     0.924872    12B2     0.946646    13B2     0.981151
      21A1     0.991011    10B1     1.015517    22A1     1.046488
      14B2     1.051256    11B1     1.123366     5A2     1.176605
      23A1     1.191719    15B2     1.200954    16B2     1.330268
      24A1     1.335781    25A1     1.451657     6A2     1.506848
      12B1     1.594254    26A1     1.668895    27A1     1.813107
      17B2     1.821630    18B2     1.974996    28A1     2.041028
      13B1     2.048377    19B2     2.054435     7A2     2.058170
      14B1     2.059244    29A1     2.078894    30A1     2.115111
       8A2     2.119404    20B2     2.137937    31A1     2.141071
      15B1     2.147862    32A1     2.253169    21B2     2.272894
      16B1     2.302810     9A2     2.311357    17B1     2.437803
      33A1     2.475363    22B2     2.482761    34A1     2.491091
      35A1     2.697691    18B1     2.717035    23B2     2.721985
      36A1     2.844302    24B2     2.860817    10A2     2.879367
      25B2     3.691070    37A1     3.751226    11A2     4.012361
      19B1     4.078176    20B1     4.099923    38A1     4.141365
      26B2     4.184416    27B2     4.281111    21B1     4.288549
      39A1     4.355536    12A2     4.381601    40A1     4.428624
      22B1     4.452651    28B2     4.514474    41A1     4.791127
      29B2     4.836480    30B2     5.139457    13A2     5.140789
      31B2     5.245377    42A1     5.335435    23B1     5.512450
      43A1     5.683671    44A1     6.197988    24B1     6.390504
      14A2     6.410995    45A1     6.411037    32B2     6.424295
      25B1     6.436069    33B2     6.490786    46A1     6.541073
      34B2     6.581674    26B1     6.718231    27B1     6.903848
      47A1     6.907645    15A2     6.925052    48A1     6.943583
      35B2     6.987059    49A1     7.046464    28B1     7.133327
      29B1     7.278061    16A2     7.303300    36B2     7.304886
      17A2     7.351817    50A1     7.437431    51A1     7.539415
      52A1     7.906651    37B2     7.911844    38B2     8.799395
      53A1     8.882289    54A1    15.737180

    Beta Occupied:

       1A1   -20.605204     2A1   -20.570981     3A1    -1.354106
       4A1    -1.050756     1B2    -0.717752     5A1    -0.588111
       1B1    -0.513288     2B2    -0.495263

    Beta Virtual:

       6A1     0.029378     3B2     0.047746     2B1     0.086809
       7A1     0.092060     8A1     0.141272     9A1     0.166973
       3B1     0.170790     4B2     0.180833     5B2     0.190870
      10A1     0.225610     4B1     0.253500     1A2     0.263682
       6B2     0.264729    11A1     0.288719    12A1     0.316787
       5B1     0.328242     7B2     0.380548    13A1     0.386553
      14A1     0.450752     8B2     0.464275     9B2     0.601692
      15A1     0.660286     6B1     0.668006     2A2     0.672584
      16A1     0.673991    17A1     0.716477     3A2     0.722340
      10B2     0.736273     7B1     0.780246    18A1     0.806874
       8B1     0.846878    19A1     0.851105     4A2     0.925284
      20A1     0.928201    11B2     0.936399    12B2     0.953397
      13B2     0.985014     9B1     0.987595    21A1     0.998039
      14B2     1.052393    22A1     1.053010    10B1     1.061401
      11B1     1.140268     5A2     1.176808    23A1     1.193176
      15B2     1.203671    16B2     1.332706    24A1     1.392436
      25A1     1.489719     6A2     1.507288    12B1     1.596248
      26A1     1.699767    27A1     1.818397    17B2     1.821961
      18B2     1.976442    28A1     2.070381    13B1     2.071152
      19B2     2.071842     7A2     2.082855    29A1     2.098855
      14B1     2.101283    30A1     2.155150    20B2     2.184897
       8A2     2.202553    31A1     2.209203    15B1     2.260417
       9A2     2.311489    32A1     2.311524    16B1     2.318011
      21B2     2.323477    17B1     2.446351    33A1     2.482813
      22B2     2.485629    34A1     2.524650    35A1     2.704534
      18B1     2.718817    23B2     2.722898    36A1     2.856992
      24B2     2.860960    10A2     2.879404    25B2     3.691994
      37A1     3.751358    11A2     4.012391    19B1     4.080413
      38A1     4.173030    26B2     4.219286    20B1     4.259447
      27B2     4.292668    21B1     4.293981    12A2     4.381714
      39A1     4.425276    22B1     4.458017    40A1     4.474107
      28B2     4.514564    41A1     4.802529    29B2     4.836647
      30B2     5.139647    13A2     5.140870    31B2     5.245839
      42A1     5.336083    23B1     5.512570    43A1     5.688536
      44A1     6.199556    24B1     6.486100    14A2     6.487822
      32B2     6.488183    45A1     6.494525    25B1     6.500063
      33B2     6.525561    34B2     6.610710    46A1     6.612592
      26B1     6.725911    47A1     6.961357    15A2     7.038600
      48A1     7.042613    27B1     7.086313    35B2     7.098898
      28B1     7.133791    49A1     7.173681    29B1     7.282225
      16A2     7.303578    36B2     7.305088    17A2     7.352267
      50A1     7.440224    51A1     7.540549    52A1     7.907266
      37B2     7.912217    38B2     8.799789    53A1     8.961464
      54A1    15.737522

    Final Occupation by Irrep:
             A1    A2    B1    B2
    DOCC [     5,    0,    1,    2 ]
    SOCC [     1,    0,    1,    0 ]

  @UHF Final Energy:  -150.87335307309851

   => Energetics <=

    Nuclear Repulsion Energy =             23.9148544201934214
    One-Electron Energy =                -255.8998858769781748
    Two-Electron Energy =                  81.1116783836862396
    Total Energy =                       -150.8733530730985137

  UHF NO Occupations:
  HONO-2 :    5 A1 1.9970482
  HONO-1 :    6 A1 1.0000000
  HONO-0 :    2 B1 1.0000000
  LUNO+0 :    7 A1 0.0029518
  LUNO+1 :    3 B2 0.0017984
  LUNO+2 :    8 A1 0.0000239
  LUNO+3 :    9 A1 0.0000024

Computation Completed

Properties will be evaluated at   0.000000,   0.000000,   0.000000 [a0]

Properties computed using the SCF density matrix

  Nuclear Dipole Moment: [e a0]
     X:    -0.0000      Y:     0.0000      Z:     3.4678

  Electronic Dipole Moment: [e a0]
     X:     0.0000      Y:     0.0000      Z:    -2.6295

  Dipole Moment: [e a0]
     X:    -0.0000      Y:     0.0000      Z:     0.8384     Total:     0.8384

  Dipole Moment: [D]
     X:    -0.0000      Y:     0.0000      Z:     2.1309     Total:     2.1309

*** tstop() called on c2-1.compute.lan at Mon Mar  8 17:29:14 2021
Module time:
	user time   =      43.96 seconds =       0.73 minutes
	system time =       1.80 seconds =       0.03 minutes
	total time  =          4 seconds =       0.07 minutes
Total time:
	user time   =      43.96 seconds =       0.73 minutes
	system time =       1.80 seconds =       0.03 minutes
	total time  =          4 seconds =       0.07 minutes
 MINTS: Wrapper to libmints.
   by Justin Turney

   Calculation information:
      Number of threads:                12
      Number of atoms:                   4
      Number of AO shells:              46
      Number of SO shells:              37
      Number of primitives:             82
      Number of atomic orbitals:       160
      Number of basis functions:       138

      Number of irreps:                  4
      Integral cutoff                 0.00e+00
      Number of functions per irrep: [  54   17   29   38 ]

 OEINTS: Overlap, kinetic, potential, dipole, and quadrupole integrals
         stored in file 35.

      Computing two-electron integrals...done
      Computed 11521320 non-zero two-electron integrals.
        Stored in file 33.

*** tstart() called on c2-1.compute.lan
*** at Mon Mar  8 17:29:17 2021

	Wfn Parameters:
	--------------------
	Wavefunction         = CCSD_T
	Number of irreps     = 4
	Number of MOs        = 138
	Number of active MOs = 136
	AO-Basis             = NONE
	Semicanonical        = false
	Reference            = UHF
	Print Level          = 1

	IRREP	# MOs	# FZDC	# DOCC	# SOCC	# VIRT	# FZVR
	-----	-----	------	------	------	------	------
	 A1	   54	    2	    3	    1	    48	    0
	 A2	   17	    0	    0	    0	    17	    0
	 B1	   29	    0	    1	    1	    27	    0
	 B2	   38	    0	    2	    0	    36	    0
	Transforming integrals...
	IWL integrals will be deleted.
	(OO|OO)...
	Presorting SO-basis two-electron integrals.
	Sorting File: SO Ints (nn|nn) nbuckets = 1
	Transforming the one-electron integrals and constructing Fock matrices
	Starting AA/AB first half-transformation.
	Sorting AA/AB half-transformed integrals.
	Starting BB first half-transformation.
	Sorting BB half-transformed integrals.
	First half integral transformation complete.
	Starting AA second half-transformation.
	Starting AB second half-transformation.
	Starting BB second half-transformation.
	Two-electron integral transformation complete.
	(OO|OV)...
	Starting AA second half-transformation.
	Starting AB second half-transformation.
	Starting BB second half-transformation.
	Two-electron integral transformation complete.
	(OO|VV)...
	Starting AA second half-transformation.
	Starting AB second half-transformation.
	Starting BB second half-transformation.
	Two-electron integral transformation complete.
	(OV|OO)...
	Starting AA/AB first half-transformation.
	Sorting AA/AB half-transformed integrals.
	Starting BB first half-transformation.
	Sorting BB half-transformed integrals.
	First half integral transformation complete.
	Starting AA second half-transformation.
	Starting AB second half-transformation.
	Starting BB second half-transformation.
	Two-electron integral transformation complete.
	(OV|OV)...
	Starting AA second half-transformation.
	Starting AB second half-transformation.
	Starting BB second half-transformation.
	Two-electron integral transformation complete.
	(OV|VV)...
	Starting AA second half-transformation.
	Starting AB second half-transformation.
	Starting BB second half-transformation.
	Two-electron integral transformation complete.
	(VV|OO)...
	Starting AA/AB first half-transformation.
	Sorting AA/AB half-transformed integrals.
	Starting BB first half-transformation.
	Sorting BB half-transformed integrals.
	First half integral transformation complete.
	Starting AA second half-transformation.
	Starting AB second half-transformation.
	Starting BB second half-transformation.
	Two-electron integral transformation complete.
	(VV|OV)...
	Starting AA second half-transformation.
	Starting AB second half-transformation.
	Starting BB second half-transformation.
	Two-electron integral transformation complete.
	(VV|VV)...
	Starting AA second half-transformation.
	Starting AB second half-transformation.
	Starting BB second half-transformation.
	Two-electron integral transformation complete.
	Frozen core energy     =   -126.40930556802574

	Size of irrep 0 of <AB|CD> integrals:      5.040 (MW) /     40.320 (MB)
	Size of irrep 1 of <AB|CD> integrals:      3.197 (MW) /     25.576 (MB)
	Size of irrep 2 of <AB|CD> integrals:      3.640 (MW) /     29.124 (MB)
	Size of irrep 3 of <AB|CD> integrals:      4.783 (MW) /     38.264 (MB)
	Total:                                    16.660 (MW) /    133.283 (MB)

	Size of irrep 0 of <ab|cd> integrals:      5.382 (MW) /     43.059 (MB)
	Size of irrep 1 of <ab|cd> integrals:      3.389 (MW) /     27.114 (MB)
	Size of irrep 2 of <ab|cd> integrals:      3.936 (MW) /     31.490 (MB)
	Size of irrep 3 of <ab|cd> integrals:      5.018 (MW) /     40.141 (MB)
	Total:                                    17.726 (MW) /    141.804 (MB)

	Size of irrep 0 of <Ab|Cd> integrals:     22.024 (MW) /    176.194 (MB)
	Size of irrep 1 of <Ab|Cd> integrals:     13.170 (MW) /    105.357 (MB)
	Size of irrep 2 of <Ab|Cd> integrals:     15.140 (MW) /    121.119 (MB)
	Size of irrep 3 of <Ab|Cd> integrals:     19.598 (MW) /    156.787 (MB)
	Total:                                    69.932 (MW) /    559.457 (MB)

	Size of irrep 0 of <IA|BC> integrals:      1.469 (MW) /     11.748 (MB)
	Size of irrep 1 of <IA|BC> integrals:      0.694 (MW) /      5.550 (MB)
	Size of irrep 2 of <IA|BC> integrals:      0.908 (MW) /      7.266 (MB)
	Size of irrep 3 of <IA|BC> integrals:      1.198 (MW) /      9.588 (MB)
	Total:                                     4.269 (MW) /     34.152 (MB)

	Size of irrep 0 of <ia|bc> integrals:      1.178 (MW) /      9.426 (MB)
	Size of irrep 1 of <ia|bc> integrals:      0.527 (MW) /      4.212 (MB)
	Size of irrep 2 of <ia|bc> integrals:      0.663 (MW) /      5.301 (MB)
	Size of irrep 3 of <ia|bc> integrals:      0.999 (MW) /      7.992 (MB)
	Total:                                     3.366 (MW) /     26.931 (MB)

	Size of irrep 0 of <Ia|Bc> integrals:      1.521 (MW) /     12.164 (MB)
	Size of irrep 1 of <Ia|Bc> integrals:      0.711 (MW) /      5.690 (MB)
	Size of irrep 2 of <Ia|Bc> integrals:      0.949 (MW) /      7.595 (MB)
	Size of irrep 3 of <Ia|Bc> integrals:      1.222 (MW) /      9.775 (MB)
	Total:                                     4.403 (MW) /     35.225 (MB)

	Size of irrep 0 of <iA|bC> integrals:      1.140 (MW) /      9.123 (MB)
	Size of irrep 1 of <iA|bC> integrals:      0.512 (MW) /      4.094 (MB)
	Size of irrep 2 of <iA|bC> integrals:      0.634 (MW) /      5.074 (MB)
	Size of irrep 3 of <iA|bC> integrals:      0.978 (MW) /      7.827 (MB)
	Total:                                     3.265 (MW) /     26.118 (MB)

	Size of irrep 0 of tIjAb amplitudes:       0.084 (MW) /      0.676 (MB)
	Size of irrep 1 of tIjAb amplitudes:       0.022 (MW) /      0.174 (MB)
	Size of irrep 2 of tIjAb amplitudes:       0.039 (MW) /      0.311 (MB)
	Size of irrep 3 of tIjAb amplitudes:       0.062 (MW) /      0.496 (MB)
	Total:                                     0.207 (MW) /      1.657 (MB)

	Nuclear Rep. energy          =     23.91485442019342
	SCF energy                   =   -150.87335307309851
	One-electron energy          =    -85.51302135494697
	Two-electron (AA) energy     =     10.38315812019704
	Two-electron (BB) energy     =      5.47542001799309
	Two-electron (AB) energy     =     21.27554129148896
	Two-electron energy          =     37.13411942967909
	Reference energy             =   -150.87335307310022

*** tstop() called on c2-1.compute.lan at Mon Mar  8 17:29:38 2021
Module time:
	user time   =      89.53 seconds =       1.49 minutes
	system time =      12.75 seconds =       0.21 minutes
	total time  =         21 seconds =       0.35 minutes
Total time:
	user time   =     139.19 seconds =       2.32 minutes
	system time =      15.06 seconds =       0.25 minutes
	total time  =         28 seconds =       0.47 minutes
            **************************
            *                        *
            *        CCENERGY        *
            *                        *
            **************************

    Nuclear Rep. energy (wfn)     =   23.914854420193421
    SCF energy          (wfn)     = -150.873353073098514
    Reference energy    (file100) = -150.873353073100219

    Input parameters:
    -----------------
    Wave function   =     CCSD_T
    Reference wfn   =     UHF
    Brueckner       =     No
    Memory (Mbytes) =     4000.0
    Maxiter         =     50
    R_Convergence   =     1.0e-10
    E_Convergence   =     1.0e-10
    Restart         =     Yes
    DIIS            =     Yes
    AO Basis        =     NONE
    ABCD            =     NEW
    Cache Level     =     2
    Cache Type      =     LRU
    Print Level     =     1
    Num. of threads =     12
    # Amps to Print =     10
    Print MP2 Amps? =     No
    Analyze T2 Amps =     No
    Print Pair Ener =     No
    Local CC        =     No
    SCS-MP2         =     False
    SCSN-MP2        =     False
    SCS-CCSD        =     False

MP2 correlation energy -0.4164292170720690
                Solving CC Amplitude Equations
                ------------------------------
  Iter             Energy              RMS        T1Diag      D1Diag    New D1Diag    D2Diag
  ----     ---------------------    ---------   ----------  ----------  ----------   --------
     0        -0.416429217072069    0.000e+00    0.000000    0.000000    0.000000    0.000000
     1        -0.427177101915556    5.710e-02    0.010611    0.000000    0.000000    0.000000
     2        -0.435289343628367    1.707e-02    0.011107    0.000000    0.000000    0.000000
     3        -0.437448625894313    8.816e-03    0.013042    0.000000    0.000000    0.000000
     4        -0.437321809792876    2.696e-03    0.013457    0.000000    0.000000    0.000000
     5        -0.437312330172454    1.406e-03    0.013655    0.000000    0.000000    0.000000
     6        -0.437341595040162    5.320e-04    0.013683    0.000000    0.000000    0.000000
     7        -0.437344581217054    2.162e-04    0.013677    0.000000    0.000000    0.000000
     8        -0.437345513123817    6.695e-05    0.013672    0.000000    0.000000    0.000000
     9        -0.437346204410700    2.406e-05    0.013672    0.000000    0.000000    0.000000
    10        -0.437345296037402    9.250e-06    0.013672    0.000000    0.000000    0.000000
    11        -0.437345462635269    4.059e-06    0.013671    0.000000    0.000000    0.000000
    12        -0.437345422869177    1.481e-06    0.013672    0.000000    0.000000    0.000000
    13        -0.437345431330635    7.500e-07    0.013672    0.000000    0.000000    0.000000
    14        -0.437345454607974    3.155e-07    0.013672    0.000000    0.000000    0.000000
    15        -0.437345456175718    1.141e-07    0.013672    0.000000    0.000000    0.000000
    16        -0.437345456804031    5.223e-08    0.013672    0.000000    0.000000    0.000000
    17        -0.437345457358493    1.993e-08    0.013672    0.000000    0.000000    0.000000
    18        -0.437345457196942    1.069e-08    0.013672    0.000000    0.000000    0.000000

      * MP2 total energy                      = -151.289782290172298
      * CCSD total energy                     = -151.310698530024155
      * CCSD(T) total energy                     = -151.323012614915342
*** Psi4 exiting successfully. Buy a developer a beer!
