                               Psi4 1.3.2 release

  ==> Input File <==

--------------------------------------------------------------------------
memory 4 GB

molecule  {
0 3
O    0.000000000000    0.000000000000    1.252538719000
H    0.000000000000   -0.758665699200    1.843355421900
H    0.000000000000    0.758665699200    1.843355421900
O    0.000000000000    0.000000000000   -1.484835018400
}
set {
basis aug-cc-pvtz
reference uhf
e_convergence 10
scf_type pk
freeze_core true
}

set ccenergy {
e_convergence 10
r_convergence 10
}

e = energy('ccsd(t)')

print_out('Stephenergy {}'.format(e))

--------------------------------------------------------------------------

    Molecular point group: c2v

    Geometry (in Angstrom), charge = 0, multiplicity = 3:

       Center              X                  Y                   Z               Mass
    ------------   -----------------  -----------------  -----------------  -----------------
         O            0.000000000000     0.000000000000     1.252538719011    15.994914619570
         H            0.000000000000    -0.758665699200     1.843355421911     1.007825032230
         H           -0.000000000000     0.758665699200     1.843355421911     1.007825032230
         O            0.000000000000     0.000000000000    -1.484835018389    15.994914619570

  Charge       = 0
  Multiplicity = 3
  Basis Set: AUG-CC-PVTZ
    Blend: AUG-CC-PVTZ

    Orbital Energies [Eh]
    ---------------------

    Alpha Occupied:

       1A1   -20.683776     2A1   -20.571395     3A1    -1.393343
       4A1    -1.355617     1B2    -0.718468     5A1    -0.688090
       1B1    -0.684579     6A1    -0.586610     2B2    -0.585585
       2B1    -0.514224

    Alpha Virtual:

       7A1     0.029545     3B2     0.047677     8A1     0.118120
       3B1     0.154361     9A1     0.159387     4B2     0.180264
       5B2     0.187478     4B1     0.192903    10A1     0.198346
       1A2     0.263727     6B2     0.264569    11A1     0.265909
      12A1     0.314376     5B1     0.327078    13A1     0.375904
       7B2     0.380516    14A1     0.449958     8B2     0.464252
       9B2     0.600037     6B1     0.644583    15A1     0.648121
       2A2     0.658263    16A1     0.667285    17A1     0.701290
       3A2     0.722023    10B2     0.725353     7B1     0.769530
      18A1     0.792487    19A1     0.821238     8B1     0.837899
      20A1     0.860604     9B1     0.901282    11B2     0.918397
       4A2     0.925315    12B2     0.947309    13B2     0.982678
      21A1     0.992083    10B1     1.017442    22A1     1.047085
      14B2     1.051808    11B1     1.124657     5A2     1.177182
      23A1     1.192579    15B2     1.202446    16B2     1.332245
      24A1     1.335026    25A1     1.457299     6A2     1.507174
      12B1     1.595225    26A1     1.669683    27A1     1.812655
      17B2     1.824298    18B2     1.975623    28A1     2.041271
      13B1     2.048829    19B2     2.054715     7A2     2.059189
      14B1     2.059496    29A1     2.079643    30A1     2.115245
       8A2     2.119923    20B2     2.139980    31A1     2.142823
      15B1     2.150076    32A1     2.254377    21B2     2.277197
      16B1     2.302138     9A2     2.311474    17B1     2.441250
      33A1     2.477980    22B2     2.482551    34A1     2.496983
      35A1     2.698455    18B1     2.717393    23B2     2.721459
      36A1     2.849202    24B2     2.858909    10A2     2.879982
      25B2     3.694676    37A1     3.751589    11A2     4.014098
      19B1     4.079266    20B1     4.100642    38A1     4.141777
      26B2     4.185782    27B2     4.284713    21B1     4.287172
      39A1     4.359320    12A2     4.382497    40A1     4.428063
      22B1     4.456220    28B2     4.516637    41A1     4.796441
      29B2     4.841143    13A2     5.143349    30B2     5.143880
      31B2     5.245652    42A1     5.340711    23B1     5.516799
      43A1     5.685280    44A1     6.202158    24B1     6.391749
      14A2     6.411618    45A1     6.412589    32B2     6.424778
      25B1     6.436509    33B2     6.494453    46A1     6.546569
      34B2     6.580538    26B1     6.720477    27B1     6.904915
      47A1     6.909504    15A2     6.925440    48A1     6.949656
      35B2     6.988056    49A1     7.046840    28B1     7.134244
      29B1     7.279918    36B2     7.304662    16A2     7.306415
      17A2     7.351867    50A1     7.439460    51A1     7.542844
      52A1     7.906521    37B2     7.917192    38B2     8.807528
      53A1     8.898892    54A1    15.776060

    Beta Occupied:

       1A1   -20.604886     2A1   -20.570875     3A1    -1.354875
       4A1    -1.050493     1B2    -0.718096     5A1    -0.588731
       1B1    -0.513481     2B2    -0.494975

    Beta Virtual:

       6A1     0.029385     3B2     0.047760     2B1     0.087014
       7A1     0.092156     8A1     0.141473     9A1     0.166989
       3B1     0.170833     4B2     0.180862     5B2     0.191122
      10A1     0.225808     4B1     0.253646     1A2     0.263729
       6B2     0.265001    11A1     0.288954    12A1     0.316773
       5B1     0.328346     7B2     0.380685    13A1     0.386617
      14A1     0.451041     8B2     0.464467     9B2     0.601708
      15A1     0.660548     6B1     0.668405     2A2     0.672585
      16A1     0.674135    17A1     0.718579     3A2     0.722541
      10B2     0.737499     7B1     0.781199    18A1     0.807252
       8B1     0.847132    19A1     0.852419     4A2     0.925745
      20A1     0.928175    11B2     0.936491    12B2     0.953848
      13B2     0.986585     9B1     0.988117    21A1     0.999229
      14B2     1.052955    22A1     1.053760    10B1     1.062122
      11B1     1.142144     5A2     1.177391    23A1     1.194032
      15B2     1.205135    16B2     1.334724    24A1     1.391568
      25A1     1.494311     6A2     1.507628    12B1     1.597233
      26A1     1.701255    27A1     1.818173    17B2     1.824634
      18B2     1.977144    28A1     2.070739    13B1     2.071381
      19B2     2.072100     7A2     2.083914    29A1     2.099803
      14B1     2.102165    30A1     2.155361    20B2     2.187836
       8A2     2.203015    31A1     2.210316    15B1     2.262206
       9A2     2.311605    32A1     2.313939    16B1     2.316945
      21B2     2.326905    17B1     2.450151    33A1     2.483972
      22B2     2.485376    34A1     2.531377    35A1     2.705221
      18B1     2.719252    23B2     2.722387    24B2     2.859028
      36A1     2.862099    10A2     2.880021    25B2     3.695640
      37A1     3.751727    11A2     4.014131    19B1     4.081644
      38A1     4.173177    26B2     4.221008    20B1     4.259394
      21B1     4.293122    27B2     4.295878    12A2     4.382615
      39A1     4.423587    22B1     4.461706    40A1     4.478776
      28B2     4.516733    41A1     4.808155    29B2     4.841319
      13A2     5.143434    30B2     5.144080    31B2     5.246158
      42A1     5.341374    23B1     5.516926    43A1     5.690407
      44A1     6.203732    24B1     6.486474    14A2     6.488443
      32B2     6.488476    45A1     6.495531    25B1     6.500835
      33B2     6.528058    34B2     6.610923    46A1     6.618209
      26B1     6.728682    47A1     6.969844    15A2     7.038985
      48A1     7.043096    27B1     7.087412    35B2     7.099879
      28B1     7.134729    49A1     7.173285    29B1     7.284054
      36B2     7.304878    16A2     7.306716    17A2     7.352330
      50A1     7.442353    51A1     7.543978    52A1     7.907179
      37B2     7.917582    38B2     8.807939    53A1     8.977880
      54A1    15.776420

    Final Occupation by Irrep:
             A1    A2    B1    B2
    DOCC [     5,    0,    1,    2 ]
    SOCC [     1,    0,    1,    0 ]

  @UHF Final Energy:  -150.87337961000486

   => Energetics <=

    Nuclear Repulsion Energy =             24.0064265947514031
    One-Electron Energy =                -256.0815155760469111
    Two-Electron Energy =                  81.2017093712906330
    Total Energy =                       -150.8733796100048608

  UHF NO Occupations:
  HONO-2 :    5 A1 1.9970475
  HONO-1 :    6 A1 1.0000000
  HONO-0 :    2 B1 1.0000000
  LUNO+0 :    7 A1 0.0029525
  LUNO+1 :    3 B2 0.0018008
  LUNO+2 :    8 A1 0.0000255
  LUNO+3 :    9 A1 0.0000024

Computation Completed

Properties will be evaluated at   0.000000,   0.000000,   0.000000 [a0]

Properties computed using the SCF density matrix

  Nuclear Dipole Moment: [e a0]
     X:     0.0000      Y:     0.0000      Z:     3.4551

  Electronic Dipole Moment: [e a0]
     X:     0.0000      Y:     0.0000      Z:    -2.6150

  Dipole Moment: [e a0]
     X:     0.0000      Y:     0.0000      Z:     0.8401     Total:     0.8401

  Dipole Moment: [D]
     X:     0.0000      Y:     0.0000      Z:     2.1352     Total:     2.1352

*** tstop() called on c2-18.compute.lan at Mon Mar  8 16:54:29 2021
Module time:
	user time   =      38.93 seconds =       0.65 minutes
	system time =       2.14 seconds =       0.04 minutes
	total time  =          5 seconds =       0.08 minutes
Total time:
	user time   =      38.93 seconds =       0.65 minutes
	system time =       2.14 seconds =       0.04 minutes
	total time  =          5 seconds =       0.08 minutes
 MINTS: Wrapper to libmints.
   by Justin Turney

   Calculation information:
      Number of threads:                12
      Number of atoms:                   4
      Number of AO shells:              46
      Number of SO shells:              37
      Number of primitives:             82
      Number of atomic orbitals:       160
      Number of basis functions:       138

      Number of irreps:                  4
      Integral cutoff                 0.00e+00
      Number of functions per irrep: [  54   17   29   38 ]

 OEINTS: Overlap, kinetic, potential, dipole, and quadrupole integrals
         stored in file 35.

      Computing two-electron integrals...done
      Computed 11334322 non-zero two-electron integrals.
        Stored in file 33.

*** tstart() called on c2-18.compute.lan
*** at Mon Mar  8 16:54:32 2021

	Wfn Parameters:
	--------------------
	Wavefunction         = CCSD_T
	Number of irreps     = 4
	Number of MOs        = 138
	Number of active MOs = 136
	AO-Basis             = NONE
	Semicanonical        = false
	Reference            = UHF
	Print Level          = 1

	IRREP	# MOs	# FZDC	# DOCC	# SOCC	# VIRT	# FZVR
	-----	-----	------	------	------	------	------
	 A1	   54	    2	    3	    1	    48	    0
	 A2	   17	    0	    0	    0	    17	    0
	 B1	   29	    0	    1	    1	    27	    0
	 B2	   38	    0	    2	    0	    36	    0
	Transforming integrals...
	IWL integrals will be deleted.
	(OO|OO)...
	Presorting SO-basis two-electron integrals.
	Sorting File: SO Ints (nn|nn) nbuckets = 1
	Transforming the one-electron integrals and constructing Fock matrices
	Starting AA/AB first half-transformation.
	Sorting AA/AB half-transformed integrals.
	Starting BB first half-transformation.
	Sorting BB half-transformed integrals.
	First half integral transformation complete.
	Starting AA second half-transformation.
	Starting AB second half-transformation.
	Starting BB second half-transformation.
	Two-electron integral transformation complete.
	(OO|OV)...
	Starting AA second half-transformation.
	Starting AB second half-transformation.
	Starting BB second half-transformation.
	Two-electron integral transformation complete.
	(OO|VV)...
	Starting AA second half-transformation.
	Starting AB second half-transformation.
	Starting BB second half-transformation.
	Two-electron integral transformation complete.
	(OV|OO)...
	Starting AA/AB first half-transformation.
	Sorting AA/AB half-transformed integrals.
	Starting BB first half-transformation.
	Sorting BB half-transformed integrals.
	First half integral transformation complete.
	Starting AA second half-transformation.
	Starting AB second half-transformation.
	Starting BB second half-transformation.
	Two-electron integral transformation complete.
	(OV|OV)...
	Starting AA second half-transformation.
	Starting AB second half-transformation.
	Starting BB second half-transformation.
	Two-electron integral transformation complete.
	(OV|VV)...
	Starting AA second half-transformation.
	Starting AB second half-transformation.
	Starting BB second half-transformation.
	Two-electron integral transformation complete.
	(VV|OO)...
	Starting AA/AB first half-transformation.
	Sorting AA/AB half-transformed integrals.
	Starting BB first half-transformation.
	Sorting BB half-transformed integrals.
	First half integral transformation complete.
	Starting AA second half-transformation.
	Starting AB second half-transformation.
	Starting BB second half-transformation.
	Two-electron integral transformation complete.
	(VV|OV)...
	Starting AA second half-transformation.
	Starting AB second half-transformation.
	Starting BB second half-transformation.
	Two-electron integral transformation complete.
	(VV|VV)...
	Starting AA second half-transformation.
	Starting AB second half-transformation.
	Starting BB second half-transformation.
	Two-electron integral transformation complete.
	Frozen core energy     =   -126.44496819758619

	Size of irrep 0 of <AB|CD> integrals:      5.040 (MW) /     40.320 (MB)
	Size of irrep 1 of <AB|CD> integrals:      3.197 (MW) /     25.576 (MB)
	Size of irrep 2 of <AB|CD> integrals:      3.640 (MW) /     29.124 (MB)
	Size of irrep 3 of <AB|CD> integrals:      4.783 (MW) /     38.264 (MB)
	Total:                                    16.660 (MW) /    133.283 (MB)

	Size of irrep 0 of <ab|cd> integrals:      5.382 (MW) /     43.059 (MB)
	Size of irrep 1 of <ab|cd> integrals:      3.389 (MW) /     27.114 (MB)
	Size of irrep 2 of <ab|cd> integrals:      3.936 (MW) /     31.490 (MB)
	Size of irrep 3 of <ab|cd> integrals:      5.018 (MW) /     40.141 (MB)
	Total:                                    17.726 (MW) /    141.804 (MB)

	Size of irrep 0 of <Ab|Cd> integrals:     22.024 (MW) /    176.194 (MB)
	Size of irrep 1 of <Ab|Cd> integrals:     13.170 (MW) /    105.357 (MB)
	Size of irrep 2 of <Ab|Cd> integrals:     15.140 (MW) /    121.119 (MB)
	Size of irrep 3 of <Ab|Cd> integrals:     19.598 (MW) /    156.787 (MB)
	Total:                                    69.932 (MW) /    559.457 (MB)

	Size of irrep 0 of <IA|BC> integrals:      1.469 (MW) /     11.748 (MB)
	Size of irrep 1 of <IA|BC> integrals:      0.694 (MW) /      5.550 (MB)
	Size of irrep 2 of <IA|BC> integrals:      0.908 (MW) /      7.266 (MB)
	Size of irrep 3 of <IA|BC> integrals:      1.198 (MW) /      9.588 (MB)
	Total:                                     4.269 (MW) /     34.152 (MB)

	Size of irrep 0 of <ia|bc> integrals:      1.178 (MW) /      9.426 (MB)
	Size of irrep 1 of <ia|bc> integrals:      0.527 (MW) /      4.212 (MB)
	Size of irrep 2 of <ia|bc> integrals:      0.663 (MW) /      5.301 (MB)
	Size of irrep 3 of <ia|bc> integrals:      0.999 (MW) /      7.992 (MB)
	Total:                                     3.366 (MW) /     26.931 (MB)

	Size of irrep 0 of <Ia|Bc> integrals:      1.521 (MW) /     12.164 (MB)
	Size of irrep 1 of <Ia|Bc> integrals:      0.711 (MW) /      5.690 (MB)
	Size of irrep 2 of <Ia|Bc> integrals:      0.949 (MW) /      7.595 (MB)
	Size of irrep 3 of <Ia|Bc> integrals:      1.222 (MW) /      9.775 (MB)
	Total:                                     4.403 (MW) /     35.225 (MB)

	Size of irrep 0 of <iA|bC> integrals:      1.140 (MW) /      9.123 (MB)
	Size of irrep 1 of <iA|bC> integrals:      0.512 (MW) /      4.094 (MB)
	Size of irrep 2 of <iA|bC> integrals:      0.634 (MW) /      5.074 (MB)
	Size of irrep 3 of <iA|bC> integrals:      0.978 (MW) /      7.827 (MB)
	Total:                                     3.265 (MW) /     26.118 (MB)

	Size of irrep 0 of tIjAb amplitudes:       0.084 (MW) /      0.676 (MB)
	Size of irrep 1 of tIjAb amplitudes:       0.022 (MW) /      0.174 (MB)
	Size of irrep 2 of tIjAb amplitudes:       0.039 (MW) /      0.311 (MB)
	Size of irrep 3 of tIjAb amplitudes:       0.062 (MW) /      0.496 (MB)
	Total:                                     0.207 (MW) /      1.657 (MB)

	Nuclear Rep. energy          =     24.00642659475140
	SCF energy                   =   -150.87337961000486
	One-electron energy          =    -85.62251066743124
	Two-electron (AA) energy     =     10.40050195637543
	Two-electron (BB) energy     =      5.48418478349921
	Two-electron (AB) energy     =     21.30298592038481
	Two-electron energy          =     37.18767266025945
	Reference energy             =   -150.87337961000657

*** tstop() called on c2-18.compute.lan at Mon Mar  8 16:55:41 2021
Module time:
	user time   =     493.80 seconds =       8.23 minutes
	system time =      40.64 seconds =       0.68 minutes
	total time  =         69 seconds =       1.15 minutes
Total time:
	user time   =     538.09 seconds =       8.97 minutes
	system time =      43.41 seconds =       0.72 minutes
	total time  =         77 seconds =       1.28 minutes
            **************************
            *                        *
            *        CCENERGY        *
            *                        *
            **************************

    Nuclear Rep. energy (wfn)     =   24.006426594751403
    SCF energy          (wfn)     = -150.873379610004861
    Reference energy    (file100) = -150.873379610006566

    Input parameters:
    -----------------
    Wave function   =     CCSD_T
    Reference wfn   =     UHF
    Brueckner       =     No
    Memory (Mbytes) =     4000.0
    Maxiter         =     50
    R_Convergence   =     1.0e-10
    E_Convergence   =     1.0e-10
    Restart         =     Yes
    DIIS            =     Yes
    AO Basis        =     NONE
    ABCD            =     NEW
    Cache Level     =     2
    Cache Type      =     LRU
    Print Level     =     1
    Num. of threads =     12
    # Amps to Print =     10
    Print MP2 Amps? =     No
    Analyze T2 Amps =     No
    Print Pair Ener =     No
    Local CC        =     No
    SCS-MP2         =     False
    SCSN-MP2        =     False
    SCS-CCSD        =     False

MP2 correlation energy -0.4163929707073214
                Solving CC Amplitude Equations
                ------------------------------
  Iter             Energy              RMS        T1Diag      D1Diag    New D1Diag    D2Diag
  ----     ---------------------    ---------   ----------  ----------  ----------   --------
     0        -0.416392970707321    0.000e+00    0.000000    0.000000    0.000000    0.000000
     1        -0.427161233172665    5.707e-02    0.010611    0.000000    0.000000    0.000000
     2        -0.435265961629400    1.706e-02    0.011111    0.000000    0.000000    0.000000
     3        -0.437422394457754    8.824e-03    0.013050    0.000000    0.000000    0.000000
     4        -0.437295331113274    2.705e-03    0.013469    0.000000    0.000000    0.000000
     5        -0.437285919152358    1.413e-03    0.013670    0.000000    0.000000    0.000000
     6        -0.437315356242694    5.330e-04    0.013699    0.000000    0.000000    0.000000
     7        -0.437318342431684    2.167e-04    0.013694    0.000000    0.000000    0.000000
     8        -0.437319259834237    6.690e-05    0.013690    0.000000    0.000000    0.000000
     9        -0.437319950977490    2.413e-05    0.013689    0.000000    0.000000    0.000000
    10        -0.437319040243084    9.252e-06    0.013689    0.000000    0.000000    0.000000
    11        -0.437319206795747    4.093e-06    0.013689    0.000000    0.000000    0.000000
    12        -0.437319167508916    1.504e-06    0.013689    0.000000    0.000000    0.000000
    13        -0.437319176265275    7.625e-07    0.013689    0.000000    0.000000    0.000000
    14        -0.437319200061637    3.220e-07    0.013689    0.000000    0.000000    0.000000
    15        -0.437319201577051    1.156e-07    0.013689    0.000000    0.000000    0.000000
    16        -0.437319202254249    5.356e-08    0.013689    0.000000    0.000000    0.000000
    17        -0.437319202792364    2.027e-08    0.013689    0.000000    0.000000    0.000000
    18        -0.437319202619799    1.107e-08    0.013689    0.000000    0.000000    0.000000

      * MP2 total energy                      = -151.289772580713901
      * CCSD total energy                     = -151.310698812337534
      * CCSD(T) total energy                     = -151.323008848138898
*** Psi4 exiting successfully. Buy a developer a beer!
