                               Psi4 1.3.2 release

  ==> Input File <==

--------------------------------------------------------------------------
memory 4 GB

molecule  {
0 3
O   -1.504118848002   -0.001213898208    0.000000000000
H   -0.554213804302    0.156583097092    0.000000000000
H   -1.896874740448    0.877838611157    0.000000000000
O    1.658559709386   -0.063964073432    0.000000000000
}
set {
basis aug-cc-pvtz
reference uhf
e_convergence 10
scf_type pk
freeze_core true
}

set ccenergy {
e_convergence 10
r_convergence 10
}

e = energy('ccsd(t)')

print_out('Stephenergy {}'.format(e))

--------------------------------------------------------------------------

    Molecular point group: cs

    Geometry (in Angstrom), charge = 0, multiplicity = 3:

       Center              X                  Y                   Z               Mass
    ------------   -----------------  -----------------  -----------------  -----------------
         O           -1.504118848002    -0.001213898208     0.000000000000    15.994914619570
         H           -0.554213804302     0.156583097092     0.000000000000     1.007825032230
         H           -1.896874740448     0.877838611157     0.000000000000     1.007825032230
         O            1.658559709386    -0.063964073432     0.000000000000    15.994914619570

  Charge       = 0
  Multiplicity = 3
  Basis Set: AUG-CC-PVTZ
    Blend: AUG-CC-PVTZ

    Orbital Energies [Eh]
    ---------------------

    Alpha Occupied:

       1Ap   -20.733029     2Ap   -20.558843     3Ap    -1.442360
       4Ap    -1.342458     5Ap    -0.733132     1App   -0.732755
       6Ap    -0.710096     7Ap    -0.634395     8Ap    -0.574581
       2App   -0.501807

    Alpha Virtual:

       9Ap     0.034198    10Ap     0.053475    11Ap     0.128204
       3App    0.132946    12Ap     0.148137    13Ap     0.160731
      14Ap     0.183907     4App    0.186833    15Ap     0.214127
      16Ap     0.241992    17Ap     0.264190     5App    0.286431
      18Ap     0.304018     6App    0.320703    19Ap     0.364313
      20Ap     0.406285    21Ap     0.460217    22Ap     0.568688
       7App    0.602642    23Ap     0.608706    24Ap     0.627052
      25Ap     0.681810     8App    0.709414    26Ap     0.714812
       9App    0.736712    10App    0.748678    27Ap     0.750625
      28Ap     0.811516    11App    0.826043    29Ap     0.836865
      12App    0.890868    30Ap     0.891908    31Ap     0.922916
      32Ap     0.944994    13App    0.947899    33Ap     0.951198
      14App    0.971413    34Ap     0.978968    35Ap     1.042794
      36Ap     1.135985    15App    1.153369    37Ap     1.169882
      38Ap     1.185129    39Ap     1.260552    16App    1.295199
      40Ap     1.316453    17App    1.527029    41Ap     1.588144
      18App    1.597996    42Ap     1.715671    43Ap     1.809198
      44Ap     1.841895    45Ap     1.977177    19App    1.977761
      46Ap     1.978015    20App    2.013231    47Ap     2.017978
      21App    2.048386    48Ap     2.060597    22App    2.122624
      49Ap     2.152496    50Ap     2.175813    23App    2.212673
      24App    2.302599    51Ap     2.311045    52Ap     2.338734
      53Ap     2.414838    25App    2.441104    54Ap     2.457992
      55Ap     2.490701    26App    2.526574    56Ap     2.629691
      57Ap     2.709817    27App    2.727723    58Ap     2.736271
      59Ap     2.860141    60Ap     2.933762    28App    2.942845
      61Ap     3.694118    62Ap     3.891424    29App    4.034896
      30App    4.062750    63Ap     4.074313    31App    4.177342
      64Ap     4.209436    65Ap     4.263221    32App    4.303328
      33App    4.390768    66Ap     4.409305    34App    4.428957
      67Ap     4.445245    68Ap     4.601319    69Ap     4.776863
      70Ap     4.955297    35App    5.153925    71Ap     5.168009
      72Ap     5.298340    73Ap     5.387249    36App    5.522599
      74Ap     5.691475    75Ap     6.186443    37App    6.312401
      76Ap     6.312432    38App    6.375496    77Ap     6.378224
      39App    6.518192    78Ap     6.519961    79Ap     6.559751
      80Ap     6.637158    40App    6.735610    81Ap     6.814426
      41App    6.820063    82Ap     6.918665    42App    6.936872
      83Ap     6.960981    84Ap     7.050895    43App    7.147785
      44App    7.271018    45App    7.323556    85Ap     7.325759
      86Ap     7.363242    46App    7.435261    87Ap     7.645833
      88Ap     7.946210    89Ap     7.957341    90Ap     8.805233
      91Ap     9.515618    92Ap    16.281566

    Beta Occupied:

       1Ap   -20.654244     2Ap   -20.558972     3Ap    -1.343031
       4Ap    -1.099893     5Ap    -0.709295     6Ap    -0.579554
       7Ap    -0.541164     1App   -0.501850

    Beta Virtual:

       8Ap     0.034357     2App    0.049398     9Ap     0.049641
      10Ap     0.055177    11Ap     0.143827    12Ap     0.152972
       3App    0.161234    13Ap     0.177997    14Ap     0.207810
      15Ap     0.225542     4App    0.227225    16Ap     0.250697
      17Ap     0.265438     5App    0.286640    18Ap     0.306160
       6App    0.324440    19Ap     0.368211    20Ap     0.417149
      21Ap     0.461505    22Ap     0.572260    23Ap     0.627829
       7App    0.635037    24Ap     0.640424    25Ap     0.686607
      26Ap     0.715480     8App    0.721474     9App    0.739855
      10App    0.750392    27Ap     0.767070    28Ap     0.817907
      29Ap     0.867804    11App    0.868987    30Ap     0.919991
      12App    0.941688    31Ap     0.941792    13App    0.949965
      32Ap     0.952582    33Ap     0.970348    34Ap     1.017562
      14App    1.020096    35Ap     1.045065    15App    1.156494
      36Ap     1.163822    37Ap     1.173189    38Ap     1.216232
      39Ap     1.263783    16App    1.305804    40Ap     1.325097
      17App    1.527732    41Ap     1.590368    18App    1.599443
      42Ap     1.741937    43Ap     1.814435    44Ap     1.852800
      45Ap     1.985282    46Ap     2.015725    19App    2.015736
      20App    2.053711    47Ap     2.065387    21App    2.170794
      48Ap     2.175983    22App    2.179616    49Ap     2.193702
      50Ap     2.244584    23App    2.249866    24App    2.306046
      51Ap     2.316543    52Ap     2.361495    53Ap     2.419227
      25App    2.443821    54Ap     2.458827    55Ap     2.497002
      26App    2.535027    56Ap     2.636853    57Ap     2.727004
      27App    2.729037    58Ap     2.739497    59Ap     2.861980
      60Ap     2.938190    28App    2.943473    61Ap     3.694804
      62Ap     3.893777    29App    4.037745    30App    4.145952
      63Ap     4.194454    64Ap     4.243340    31App    4.262591
      65Ap     4.274822    32App    4.303380    33App    4.390837
      66Ap     4.412814    34App    4.429628    67Ap     4.489677
      68Ap     4.603906    69Ap     4.778503    70Ap     4.957306
      35App    5.153912    71Ap     5.168304    72Ap     5.298574
      73Ap     5.388482    36App    5.522659    74Ap     5.691820
      75Ap     6.187694    76Ap     6.421253    37App    6.421257
      38App    6.450687    77Ap     6.453456    78Ap     6.535320
      39App    6.572057    79Ap     6.600256    80Ap     6.682086
      40App    6.741559    81Ap     6.920244    41App    7.005166
      82Ap     7.006733    42App    7.046070    83Ap     7.068189
      84Ap     7.130673    43App    7.150322    44App    7.271238
      45App    7.324297    85Ap     7.326061    86Ap     7.364033
      46App    7.435672    87Ap     7.646691    88Ap     7.947158
      89Ap     7.957749    90Ap     8.806743    91Ap     9.590656
      92Ap    16.281838

    Final Occupation by Irrep:
             Ap   App
    DOCC [     7,    1 ]
    SOCC [     1,    1 ]

  @UHF Final Energy:  -150.87440979863851

   => Energetics <=

    Nuclear Repulsion Energy =             22.9016597539581248
    One-Electron Energy =                -253.6006798213021511
    Two-Electron Energy =                  79.8246102687055128
    Total Energy =                       -150.8744097986385100

  UHF NO Occupations:
  HONO-2 :    7 Ap 1.9970282
  HONO-1 :    2App 1.0000000
  HONO-0 :    8 Ap 1.0000000
  LUNO+0 :    9 Ap 0.0029718
  LUNO+1 :   10 Ap 0.0017159
  LUNO+2 :   11 Ap 0.0000024
  LUNO+3 :   12 Ap 0.0000017

Computation Completed

Properties will be evaluated at   0.000000,   0.000000,   0.000000 [a0]

Properties computed using the SCF density matrix

  Nuclear Dipole Moment: [e a0]
     X:    -2.2971      Y:     0.9694      Z:     0.0000

  Electronic Dipole Moment: [e a0]
     X:     2.7581      Y:    -0.2941      Z:     0.0000

  Dipole Moment: [e a0]
     X:     0.4610      Y:     0.6753      Z:     0.0000     Total:     0.8177

  Dipole Moment: [D]
     X:     1.1718      Y:     1.7164      Z:     0.0000     Total:     2.0783

*** tstop() called on d3-19.compute.lan at Tue Mar  9 15:35:37 2021
Module time:
	user time   =      52.98 seconds =       0.88 minutes
	system time =       2.35 seconds =       0.04 minutes
	total time  =          5 seconds =       0.08 minutes
Total time:
	user time   =      52.98 seconds =       0.88 minutes
	system time =       2.35 seconds =       0.04 minutes
	total time  =          5 seconds =       0.08 minutes
 MINTS: Wrapper to libmints.
   by Justin Turney

   Calculation information:
      Number of threads:                12
      Number of atoms:                   4
      Number of AO shells:              46
      Number of SO shells:              46
      Number of primitives:             82
      Number of atomic orbitals:       160
      Number of basis functions:       138

      Number of irreps:                  2
      Integral cutoff                 0.00e+00
      Number of functions per irrep: [  92   46 ]

 OEINTS: Overlap, kinetic, potential, dipole, and quadrupole integrals
         stored in file 35.

      Computing two-electron integrals...done
      Computed 22929713 non-zero two-electron integrals.
        Stored in file 33.

*** tstart() called on d3-19.compute.lan
*** at Tue Mar  9 15:35:41 2021

	Wfn Parameters:
	--------------------
	Wavefunction         = CCSD_T
	Number of irreps     = 2
	Number of MOs        = 138
	Number of active MOs = 136
	AO-Basis             = NONE
	Semicanonical        = false
	Reference            = UHF
	Print Level          = 1

	IRREP	# MOs	# FZDC	# DOCC	# SOCC	# VIRT	# FZVR
	-----	-----	------	------	------	------	------
	 Ap	   92	    2	    5	    1	    84	    0
	 App	   46	    0	    1	    1	    44	    0
	Transforming integrals...
	IWL integrals will be deleted.
	(OO|OO)...
	Presorting SO-basis two-electron integrals.
	Sorting File: SO Ints (nn|nn) nbuckets = 1
	Transforming the one-electron integrals and constructing Fock matrices
	Starting AA/AB first half-transformation.
	Sorting AA/AB half-transformed integrals.
	Starting BB first half-transformation.
	Sorting BB half-transformed integrals.
	First half integral transformation complete.
	Starting AA second half-transformation.
	Starting AB second half-transformation.
	Starting BB second half-transformation.
	Two-electron integral transformation complete.
	(OO|OV)...
	Starting AA second half-transformation.
	Starting AB second half-transformation.
	Starting BB second half-transformation.
	Two-electron integral transformation complete.
	(OO|VV)...
	Starting AA second half-transformation.
	Starting AB second half-transformation.
	Starting BB second half-transformation.
	Two-electron integral transformation complete.
	(OV|OO)...
	Starting AA/AB first half-transformation.
	Sorting AA/AB half-transformed integrals.
	Starting BB first half-transformation.
	Sorting BB half-transformed integrals.
	First half integral transformation complete.
	Starting AA second half-transformation.
	Starting AB second half-transformation.
	Starting BB second half-transformation.
	Two-electron integral transformation complete.
	(OV|OV)...
	Starting AA second half-transformation.
	Starting AB second half-transformation.
	Starting BB second half-transformation.
	Two-electron integral transformation complete.
	(OV|VV)...
	Starting AA second half-transformation.
	Starting AB second half-transformation.
	Starting BB second half-transformation.
	Two-electron integral transformation complete.
	(VV|OO)...
	Starting AA/AB first half-transformation.
	Sorting AA/AB half-transformed integrals.
	Starting BB first half-transformation.
	Sorting BB half-transformed integrals.
	First half integral transformation complete.
	Starting AA second half-transformation.
	Starting AB second half-transformation.
	Starting BB second half-transformation.
	Two-electron integral transformation complete.
	(VV|OV)...
	Starting AA second half-transformation.
	Starting AB second half-transformation.
	Starting BB second half-transformation.
	Two-electron integral transformation complete.
	(VV|VV)...
	Starting AA second half-transformation.
	Starting AB second half-transformation.
	Starting BB second half-transformation.
	Two-electron integral transformation complete.
	Frozen core energy     =   -125.85700767402500

	Size of irrep 0 of <AB|CD> integrals:     19.643 (MW) /    157.141 (MB)
	Size of irrep 1 of <AB|CD> integrals:     13.660 (MW) /    109.283 (MB)
	Total:                                    33.303 (MW) /    266.424 (MB)

	Size of irrep 0 of <ab|cd> integrals:     20.794 (MW) /    166.349 (MB)
	Size of irrep 1 of <ab|cd> integrals:     14.631 (MW) /    117.045 (MB)
	Total:                                    35.424 (MW) /    283.394 (MB)

	Size of irrep 0 of <Ab|Cd> integrals:     83.174 (MW) /    665.395 (MB)
	Size of irrep 1 of <Ab|Cd> integrals:     56.550 (MW) /    452.403 (MB)
	Total:                                   139.725 (MW) /   1117.798 (MB)

	Size of irrep 0 of <IA|BC> integrals:      5.323 (MW) /     42.586 (MB)
	Size of irrep 1 of <IA|BC> integrals:      3.193 (MW) /     25.547 (MB)
	Total:                                     8.517 (MW) /     68.133 (MB)

	Size of irrep 0 of <ia|bc> integrals:      4.348 (MW) /     34.780 (MB)
	Size of irrep 1 of <ia|bc> integrals:      2.372 (MW) /     18.972 (MB)
	Total:                                     6.719 (MW) /     53.752 (MB)

	Size of irrep 0 of <Ia|Bc> integrals:      5.472 (MW) /     43.776 (MB)
	Size of irrep 1 of <Ia|Bc> integrals:      3.309 (MW) /     26.470 (MB)
	Total:                                     8.781 (MW) /     70.246 (MB)

	Size of irrep 0 of <iA|bC> integrals:      4.232 (MW) /     33.853 (MB)
	Size of irrep 1 of <iA|bC> integrals:      2.286 (MW) /     18.289 (MB)
	Total:                                     6.518 (MW) /     52.142 (MB)

	Size of irrep 0 of tIjAb amplitudes:       0.292 (MW) /      2.335 (MB)
	Size of irrep 1 of tIjAb amplitudes:       0.120 (MW) /      0.963 (MB)
	Total:                                     0.412 (MW) /      3.297 (MB)

	Nuclear Rep. energy          =     22.90165975395812
	SCF energy                   =   -150.87440979863851
	One-electron energy          =    -84.39175293679276
	Two-electron (AA) energy     =     10.13593465788899
	Two-electron (BB) energy     =      5.39158515868739
	Two-electron (AB) energy     =     20.94517124164330
	Two-electron energy          =     36.47269105821968
	Reference energy             =   -150.87440979863993

*** tstop() called on d3-19.compute.lan at Tue Mar  9 15:36:22 2021
Module time:
	user time   =     236.11 seconds =       3.94 minutes
	system time =      18.47 seconds =       0.31 minutes
	total time  =         41 seconds =       0.68 minutes
Total time:
	user time   =     296.32 seconds =       4.94 minutes
	system time =      21.73 seconds =       0.36 minutes
	total time  =         50 seconds =       0.83 minutes
            **************************
            *                        *
            *        CCENERGY        *
            *                        *
            **************************

    Nuclear Rep. energy (wfn)     =   22.901659753958125
    SCF energy          (wfn)     = -150.874409798638510
    Reference energy    (file100) = -150.874409798639931

    Input parameters:
    -----------------
    Wave function   =     CCSD_T
    Reference wfn   =     UHF
    Brueckner       =     No
    Memory (Mbytes) =     4000.0
    Maxiter         =     50
    R_Convergence   =     1.0e-10
    E_Convergence   =     1.0e-10
    Restart         =     Yes
    DIIS            =     Yes
    AO Basis        =     NONE
    ABCD            =     NEW
    Cache Level     =     2
    Cache Type      =     LRU
    Print Level     =     1
    Num. of threads =     12
    # Amps to Print =     10
    Print MP2 Amps? =     No
    Analyze T2 Amps =     No
    Print Pair Ener =     No
    Local CC        =     No
    SCS-MP2         =     False
    SCSN-MP2        =     False
    SCS-CCSD        =     False

MP2 correlation energy -0.4166719697754467
                Solving CC Amplitude Equations
                ------------------------------
  Iter             Energy              RMS        T1Diag      D1Diag    New D1Diag    D2Diag
  ----     ---------------------    ---------   ----------  ----------  ----------   --------
     0        -0.416671969775447    0.000e+00    0.000000    0.000000    0.000000    0.000000
     1        -0.427373118052821    5.694e-02    0.010563    0.000000    0.000000    0.000000
     2        -0.435469333038053    1.691e-02    0.011041    0.000000    0.000000    0.000000
     3        -0.437594799593174    8.585e-03    0.012914    0.000000    0.000000    0.000000
     4        -0.437468945469037    2.537e-03    0.013282    0.000000    0.000000    0.000000
     5        -0.437454453837781    1.321e-03    0.013438    0.000000    0.000000    0.000000
     6        -0.437481682298095    5.152e-04    0.013461    0.000000    0.000000    0.000000
     7        -0.437486314388255    2.651e-04    0.013455    0.000000    0.000000    0.000000
     8        -0.437486918446228    9.979e-05    0.013451    0.000000    0.000000    0.000000
     9        -0.437488294167026    7.450e-05    0.013452    0.000000    0.000000    0.000000
    10        -0.437486731444034    6.436e-05    0.013453    0.000000    0.000000    0.000000
    11        -0.437486878349683    6.151e-05    0.013454    0.000000    0.000000    0.000000
    12        -0.437486588838824    5.981e-05    0.013456    0.000000    0.000000    0.000000
    13        -0.437486580910762    5.867e-05    0.013460    0.000000    0.000000    0.000000
    14        -0.437487761244501    5.678e-05    0.013478    0.000000    0.000000    0.000000
    15        -0.437488141203713    5.022e-05    0.013551    0.000000    0.000000    0.000000
    16        -0.437487917259692    3.356e-05    0.013692    0.000000    0.000000    0.000000
    17        -0.437487571223793    1.619e-05    0.013761    0.000000    0.000000    0.000000
    18        -0.437487440961432    7.597e-06    0.013778    0.000000    0.000000    0.000000
    19        -0.437487700530640    3.358e-06    0.013783    0.000000    0.000000    0.000000
    20        -0.437487812307659    1.504e-06    0.013784    0.000000    0.000000    0.000000
    21        -0.437487820249696    5.924e-07    0.013784    0.000000    0.000000    0.000000
    22        -0.437487821571776    2.811e-07    0.013784    0.000000    0.000000    0.000000
    23        -0.437487820477515    1.459e-07    0.013784    0.000000    0.000000    0.000000
    24        -0.437487819803267    6.058e-08    0.013784    0.000000    0.000000    0.000000
    25        -0.437487820770241    3.309e-08    0.013784    0.000000    0.000000    0.000000
    26        -0.437487821228906    2.568e-08    0.013784    0.000000    0.000000    0.000000
    27        -0.437487821387121    2.405e-08    0.013784    0.000000    0.000000    0.000000
    28        -0.437487821335059    2.331e-08    0.013784    0.000000    0.000000    0.000000
    29        -0.437487821170736    2.263e-08    0.013784    0.000000    0.000000    0.000000
    30        -0.437487820903914    2.154e-08    0.013784    0.000000    0.000000    0.000000
    31        -0.437487821103267    1.823e-08    0.013784    0.000000    0.000000    0.000000
    32        -0.437487821448337    9.560e-09    0.013784    0.000000    0.000000    0.000000
    33        -0.437487821550606    4.180e-09    0.013784    0.000000    0.000000    0.000000
    34        -0.437487821602883    1.709e-09    0.013784    0.000000    0.000000    0.000000
    35        -0.437487821609692    6.725e-10    0.013784    0.000000    0.000000    0.000000
    36        -0.437487821609460    2.878e-10    0.013784    0.000000    0.000000    0.000000

      * MP2 total energy                      = -151.291081768415381
      * CCSD total energy                     = -151.311897620248686
      * CCSD(T) total energy                     = -151.324260696074447
*** Psi4 exiting successfully. Buy a developer a beer!
