                               Psi4 1.3.2 release

  ==> Input File <==

--------------------------------------------------------------------------
memory 4 GB

molecule  {
0 3
O    0.000000000000    0.000000000000   -1.547740349071
H    0.000000000000   -0.752326346800   -0.944144941845
H   -0.000000000000    0.752326346800   -0.944144941845
O    0.000000000000    0.000000000000    1.666719778355
}
set {
basis aug-cc-pvtz
reference uhf
e_convergence 10
scf_type pk
freeze_core true
}

set ccenergy {
e_convergence 10
r_convergence 10
}

e = energy('ccsd(t)')

print_out('Stephenergy {}'.format(e))

--------------------------------------------------------------------------

    Molecular point group: c2v

    Geometry (in Angstrom), charge = 0, multiplicity = 3:

       Center              X                  Y                   Z               Mass
    ------------   -----------------  -----------------  -----------------  -----------------
         O           -0.000000000000     0.000000000000    -1.547740349071    15.994914619570
         H            0.000000000000    -0.752326346800    -0.944144941845     1.007825032230
         H           -0.000000000000     0.752326346800    -0.944144941845     1.007825032230
         O           -0.000000000000     0.000000000000     1.666719778355    15.994914619570

  Charge       = 0
  Multiplicity = 3
  Basis Set: AUG-CC-PVTZ
    Blend: AUG-CC-PVTZ

    Orbital Energies [Eh]
    ---------------------

    Alpha Occupied:

       1A1   -20.731068     2A1   -20.562348     3A1    -1.440463
       4A1    -1.344797     1B2    -0.731917     1B1    -0.731285
       2B2    -0.703588     5A1    -0.636432     6A1    -0.578672
       2B1    -0.504077

    Alpha Virtual:

       7A1     0.035800     3B2     0.048604     3B1     0.131482
       8A1     0.132901     9A1     0.150550     4B2     0.158823
       4B1     0.183729     5B2     0.185486    10A1     0.190365
      11A1     0.258149     6B2     0.261038     1A2     0.265947
      12A1     0.274639     5B1     0.323254    13A1     0.376557
       7B2     0.384533    14A1     0.453976     8B2     0.473154
       2A2     0.610396    15A1     0.624029     9B2     0.624321
      16A1     0.631264     6B1     0.646252    17A1     0.717214
       3A2     0.731758    10B2     0.743716     7B1     0.752834
      18A1     0.793304     8B1     0.832800    11B2     0.850311
      19A1     0.850808     9B1     0.918375     4A2     0.941107
      12B2     0.942639    20A1     0.957832    21A1     0.965086
      10B1     0.982114    13B2     0.990346    22A1     1.053277
      14B2     1.057414    11B1     1.144348     5A2     1.190258
      23A1     1.195170    24A1     1.255233    15B2     1.272254
      16B2     1.302278    25A1     1.392851     6A2     1.509501
      12B1     1.587449    26A1     1.697779    27A1     1.835137
      17B2     1.841831    18B2     1.966328    13B1     1.977016
      19B2     2.000948    28A1     2.005493     7A2     2.015720
      14B1     2.032858    29A1     2.040975     8A2     2.056181
      30A1     2.092398    20B2     2.100387    15B1     2.139165
      31A1     2.182117    16B1     2.294682    21B2     2.304659
       9A2     2.336881    32A1     2.385875    33A1     2.400921
      34A1     2.485853    22B2     2.511906    17B1     2.535830
      35A1     2.588824    23B2     2.695009    18B1     2.723919
      36A1     2.831082    10A2     2.889406    24B2     2.909412
      25B2     3.667867    37A1     3.743246    11A2     4.038357
      19B1     4.052508    26B2     4.104115    20B1     4.106744
      38A1     4.193008    21B1     4.272555    27B2     4.277455
      39A1     4.334918    12A2     4.384399    22B1     4.418275
      40A1     4.468592    28B2     4.535394    41A1     4.757869
      29B2     4.853365    13A2     5.141219    30B2     5.172118
      31B2     5.239512    42A1     5.365378    23B1     5.523640
      43A1     5.665973    44A1     6.204669    24B1     6.313406
      32B2     6.315184    14A2     6.378567    45A1     6.388183
      25B1     6.411818    33B2     6.479567    46A1     6.501419
      34B2     6.536175    26B1     6.756729    15A2     6.820576
      47A1     6.822495    48A1     6.934450    27B1     6.936959
      35B2     6.972507    49A1     7.037978    28B1     7.135224
      29B1     7.261920    16A2     7.314780    36B2     7.342268
      17A2     7.357857    50A1     7.375188    51A1     7.549630
      52A1     7.887928    37B2     7.937302    53A1     8.670963
      38B2     8.805967    54A1    15.664576

    Beta Occupied:

       1A1   -20.652545     2A1   -20.562408     3A1    -1.345112
       4A1    -1.098300     1B2    -0.703854     5A1    -0.586908
       6A1    -0.538967     1B1    -0.504040

    Beta Virtual:

       2B2     0.033933     7A1     0.037011     2B1     0.048376
       3B2     0.069541     8A1     0.138728     9A1     0.153051
       3B1     0.161027     4B2     0.180060    10A1     0.190746
       5B2     0.224814     4B1     0.225785     6B2     0.264430
       1A2     0.266422    11A1     0.266867    12A1     0.277253
       5B1     0.324503    13A1     0.380079     7B2     0.391513
      14A1     0.455459     8B2     0.473626     9B2     0.626131
      15A1     0.633323     2A2     0.642393    16A1     0.656567
       6B1     0.657254    17A1     0.718310     3A2     0.733016
      10B2     0.756191     7B1     0.756196    18A1     0.807409
      19A1     0.856544     8B1     0.910941     9B1     0.935799
      11B2     0.940593     4A2     0.943273    12B2     0.949991
      20A1     0.960525    21A1     0.969752    13B2     1.024504
      10B1     1.033194    22A1     1.054471    14B2     1.063332
      11B1     1.154038     5A2     1.191190    23A1     1.199231
      15B2     1.272441    24A1     1.294022    16B2     1.320132
      25A1     1.424655     6A2     1.509740    12B1     1.587709
      26A1     1.715345    27A1     1.837472    17B2     1.843064
      18B2     1.977671    13B1     2.014725    19B2     2.027814
      28A1     2.030397    14B1     2.057071     7A2     2.058444
      29A1     2.101467    20B2     2.152793    30A1     2.180942
       8A2     2.184660    15B1     2.200718    31A1     2.223157
      16B1     2.302441    21B2     2.341026     9A2     2.341279
      32A1     2.390378    33A1     2.423658    34A1     2.487669
      22B2     2.518894    17B1     2.540745    35A1     2.591624
      23B2     2.695381    18B1     2.724069    36A1     2.831788
      10A2     2.889459    24B2     2.911237    25B2     3.668097
      37A1     3.743434    11A2     4.038489    19B1     4.103441
      38A1     4.203381    20B1     4.226980    26B2     4.256139
      21B1     4.273018    27B2     4.293592    39A1     4.348385
      12A2     4.384467    22B1     4.418836    40A1     4.492152
      28B2     4.536342    41A1     4.758490    29B2     4.853751
      13A2     5.141258    30B2     5.172142    31B2     5.239608
      42A1     5.365849    23B1     5.523644    43A1     5.666291
      44A1     6.208654    24B1     6.422143    32B2     6.423671
      14A2     6.455102    45A1     6.461661    25B1     6.466244
      33B2     6.506826    46A1     6.548486    34B2     6.565628
      26B1     6.764173    47A1     6.936528    15A2     7.009293
      48A1     7.012557    27B1     7.042769    35B2     7.081320
      49A1     7.115884    28B1     7.136309    29B1     7.261919
      16A2     7.314821    36B2     7.343590    17A2     7.357981
      50A1     7.376525    51A1     7.551056    52A1     7.888110
      37B2     7.937291    53A1     8.753630    38B2     8.805863
      54A1    15.664577

    Final Occupation by Irrep:
             A1    A2    B1    B2
    DOCC [     6,    0,    1,    1 ]
    SOCC [     0,    0,    1,    1 ]

  @UHF Final Energy:  -150.87271850086583

   => Energetics <=

    Nuclear Repulsion Energy =             22.7819408748925909
    One-Electron Energy =                -253.3525386229373737
    Two-Electron Energy =                  79.6978792471789603
    Total Energy =                       -150.8727185008658012

  UHF NO Occupations:
  HONO-2 :    6 A1 1.9970788
  HONO-1 :    2 B1 1.0000000
  HONO-0 :    2 B2 1.0000000
  LUNO+0 :    7 A1 0.0029212
  LUNO+1 :    8 A1 0.0016505
  LUNO+2 :    9 A1 0.0000024
  LUNO+3 :   10 A1 0.0000010

Computation Completed

Properties will be evaluated at   0.000000,   0.000000,   0.000000 [a0]

Properties computed using the SCF density matrix

  Nuclear Dipole Moment: [e a0]
     X:    -0.0000      Y:     0.0000      Z:    -1.7696

  Electronic Dipole Moment: [e a0]
     X:     0.0000      Y:     0.0000      Z:     2.6188

  Dipole Moment: [e a0]
     X:    -0.0000      Y:     0.0000      Z:     0.8492     Total:     0.8492

  Dipole Moment: [D]
     X:    -0.0000      Y:     0.0000      Z:     2.1584     Total:     2.1584

*** tstop() called on c1-11.compute.lan at Wed Mar 10 09:34:32 2021
Module time:
	user time   =      44.21 seconds =       0.74 minutes
	system time =       3.05 seconds =       0.05 minutes
	total time  =          6 seconds =       0.10 minutes
Total time:
	user time   =      44.21 seconds =       0.74 minutes
	system time =       3.05 seconds =       0.05 minutes
	total time  =          6 seconds =       0.10 minutes
 MINTS: Wrapper to libmints.
   by Justin Turney

   Calculation information:
      Number of threads:                12
      Number of atoms:                   4
      Number of AO shells:              46
      Number of SO shells:              37
      Number of primitives:             82
      Number of atomic orbitals:       160
      Number of basis functions:       138

      Number of irreps:                  4
      Integral cutoff                 0.00e+00
      Number of functions per irrep: [  54   17   29   38 ]

 OEINTS: Overlap, kinetic, potential, dipole, and quadrupole integrals
         stored in file 35.

      Computing two-electron integrals...done
      Computed 11529833 non-zero two-electron integrals.
        Stored in file 33.

*** tstart() called on c1-11.compute.lan
*** at Wed Mar 10 09:34:35 2021

	Wfn Parameters:
	--------------------
	Wavefunction         = CCSD_T
	Number of irreps     = 4
	Number of MOs        = 138
	Number of active MOs = 136
	AO-Basis             = NONE
	Semicanonical        = false
	Reference            = UHF
	Print Level          = 1

	IRREP	# MOs	# FZDC	# DOCC	# SOCC	# VIRT	# FZVR
	-----	-----	------	------	------	------	------
	 A1	   54	    2	    4	    0	    48	    0
	 A2	   17	    0	    0	    0	    17	    0
	 B1	   29	    0	    1	    1	    27	    0
	 B2	   38	    0	    1	    1	    36	    0
	Transforming integrals...
	IWL integrals will be deleted.
	(OO|OO)...
	Presorting SO-basis two-electron integrals.
	Sorting File: SO Ints (nn|nn) nbuckets = 1
	Transforming the one-electron integrals and constructing Fock matrices
	Starting AA/AB first half-transformation.
	Sorting AA/AB half-transformed integrals.
	Starting BB first half-transformation.
	Sorting BB half-transformed integrals.
	First half integral transformation complete.
	Starting AA second half-transformation.
	Starting AB second half-transformation.
	Starting BB second half-transformation.
	Two-electron integral transformation complete.
	(OO|OV)...
	Starting AA second half-transformation.
	Starting AB second half-transformation.
	Starting BB second half-transformation.
	Two-electron integral transformation complete.
	(OO|VV)...
	Starting AA second half-transformation.
	Starting AB second half-transformation.
	Starting BB second half-transformation.
	Two-electron integral transformation complete.
	(OV|OO)...
	Starting AA/AB first half-transformation.
	Sorting AA/AB half-transformed integrals.
	Starting BB first half-transformation.
	Sorting BB half-transformed integrals.
	First half integral transformation complete.
	Starting AA second half-transformation.
	Starting AB second half-transformation.
	Starting BB second half-transformation.
	Two-electron integral transformation complete.
	(OV|OV)...
	Starting AA second half-transformation.
	Starting AB second half-transformation.
	Starting BB second half-transformation.
	Two-electron integral transformation complete.
	(OV|VV)...
	Starting AA second half-transformation.
	Starting AB second half-transformation.
	Starting BB second half-transformation.
	Two-electron integral transformation complete.
	(VV|OO)...
	Starting AA/AB first half-transformation.
	Sorting AA/AB half-transformed integrals.
	Starting BB first half-transformation.
	Sorting BB half-transformed integrals.
	First half integral transformation complete.
	Starting AA second half-transformation.
	Starting AB second half-transformation.
	Starting BB second half-transformation.
	Two-electron integral transformation complete.
	(VV|OV)...
	Starting AA second half-transformation.
	Starting AB second half-transformation.
	Starting BB second half-transformation.
	Two-electron integral transformation complete.
	(VV|VV)...
	Starting AA second half-transformation.
	Starting AB second half-transformation.
	Starting BB second half-transformation.
	Two-electron integral transformation complete.
	Frozen core energy     =   -125.79407825435142

	Size of irrep 0 of <AB|CD> integrals:      5.040 (MW) /     40.320 (MB)
	Size of irrep 1 of <AB|CD> integrals:      3.197 (MW) /     25.576 (MB)
	Size of irrep 2 of <AB|CD> integrals:      3.640 (MW) /     29.124 (MB)
	Size of irrep 3 of <AB|CD> integrals:      4.783 (MW) /     38.264 (MB)
	Total:                                    16.660 (MW) /    133.283 (MB)

	Size of irrep 0 of <ab|cd> integrals:      5.327 (MW) /     42.615 (MB)
	Size of irrep 1 of <ab|cd> integrals:      3.430 (MW) /     27.439 (MB)
	Size of irrep 2 of <ab|cd> integrals:      3.893 (MW) /     31.142 (MB)
	Size of irrep 3 of <ab|cd> integrals:      5.072 (MW) /     40.572 (MB)
	Total:                                    17.721 (MW) /    141.768 (MB)

	Size of irrep 0 of <Ab|Cd> integrals:     21.912 (MW) /    175.294 (MB)
	Size of irrep 1 of <Ab|Cd> integrals:     13.242 (MW) /    105.939 (MB)
	Size of irrep 2 of <Ab|Cd> integrals:     15.062 (MW) /    120.497 (MB)
	Size of irrep 3 of <Ab|Cd> integrals:     19.705 (MW) /    157.638 (MB)
	Total:                                    69.921 (MW) /    559.368 (MB)

	Size of irrep 0 of <IA|BC> integrals:      1.469 (MW) /     11.748 (MB)
	Size of irrep 1 of <IA|BC> integrals:      0.694 (MW) /      5.550 (MB)
	Size of irrep 2 of <IA|BC> integrals:      0.908 (MW) /      7.266 (MB)
	Size of irrep 3 of <IA|BC> integrals:      1.198 (MW) /      9.588 (MB)
	Total:                                     4.269 (MW) /     34.152 (MB)

	Size of irrep 0 of <ia|bc> integrals:      1.220 (MW) /      9.758 (MB)
	Size of irrep 1 of <ia|bc> integrals:      0.493 (MW) /      3.941 (MB)
	Size of irrep 2 of <ia|bc> integrals:      0.698 (MW) /      5.588 (MB)
	Size of irrep 3 of <ia|bc> integrals:      0.959 (MW) /      7.675 (MB)
	Total:                                     3.370 (MW) /     26.961 (MB)

	Size of irrep 0 of <Ia|Bc> integrals:      1.507 (MW) /     12.058 (MB)
	Size of irrep 1 of <Ia|Bc> integrals:      0.721 (MW) /      5.764 (MB)
	Size of irrep 2 of <Ia|Bc> integrals:      0.939 (MW) /      7.514 (MB)
	Size of irrep 3 of <Ia|Bc> integrals:      1.234 (MW) /      9.872 (MB)
	Total:                                     4.401 (MW) /     35.208 (MB)

	Size of irrep 0 of <iA|bC> integrals:      1.194 (MW) /      9.549 (MB)
	Size of irrep 1 of <iA|bC> integrals:      0.477 (MW) /      3.814 (MB)
	Size of irrep 2 of <iA|bC> integrals:      0.671 (MW) /      5.371 (MB)
	Size of irrep 3 of <iA|bC> integrals:      0.928 (MW) /      7.422 (MB)
	Total:                                     3.270 (MW) /     26.156 (MB)

	Size of irrep 0 of tIjAb amplitudes:       0.094 (MW) /      0.749 (MB)
	Size of irrep 1 of tIjAb amplitudes:       0.015 (MW) /      0.116 (MB)
	Size of irrep 2 of tIjAb amplitudes:       0.047 (MW) /      0.373 (MB)
	Size of irrep 3 of tIjAb amplitudes:       0.053 (MW) /      0.426 (MB)
	Total:                                     0.208 (MW) /      1.664 (MB)

	Nuclear Rep. energy          =     22.78194087489259
	SCF energy                   =   -150.87271850086583
	One-electron energy          =    -84.27275027832081
	Two-electron (AA) energy     =     10.11629460935333
	Two-electron (BB) energy     =      5.38035617752114
	Two-electron (AB) energy     =     20.91551837003774
	Two-electron energy          =     36.41216915691221
	Reference energy             =   -150.87271850086745

*** tstop() called on c1-11.compute.lan at Wed Mar 10 09:35:01 2021
Module time:
	user time   =     111.43 seconds =       1.86 minutes
	system time =      17.50 seconds =       0.29 minutes
	total time  =         26 seconds =       0.43 minutes
Total time:
	user time   =     160.52 seconds =       2.68 minutes
	system time =      21.12 seconds =       0.35 minutes
	total time  =         35 seconds =       0.58 minutes
            **************************
            *                        *
            *        CCENERGY        *
            *                        *
            **************************

    Nuclear Rep. energy (wfn)     =   22.781940874892591
    SCF energy          (wfn)     = -150.872718500865830
    Reference energy    (file100) = -150.872718500867450

    Input parameters:
    -----------------
    Wave function   =     CCSD_T
    Reference wfn   =     UHF
    Brueckner       =     No
    Memory (Mbytes) =     4000.0
    Maxiter         =     50
    R_Convergence   =     1.0e-10
    E_Convergence   =     1.0e-10
    Restart         =     Yes
    DIIS            =     Yes
    AO Basis        =     NONE
    ABCD            =     NEW
    Cache Level     =     2
    Cache Type      =     LRU
    Print Level     =     1
    Num. of threads =     12
    # Amps to Print =     10
    Print MP2 Amps? =     No
    Analyze T2 Amps =     No
    Print Pair Ener =     No
    Local CC        =     No
    SCS-MP2         =     False
    SCSN-MP2        =     False
    SCS-CCSD        =     False

MP2 correlation energy -0.4163295920566715
                Solving CC Amplitude Equations
                ------------------------------
  Iter             Energy              RMS        T1Diag      D1Diag    New D1Diag    D2Diag
  ----     ---------------------    ---------   ----------  ----------  ----------   --------
     0        -0.416329592056672    0.000e+00    0.000000    0.000000    0.000000    0.000000
     1        -0.427113909148768    5.668e-02    0.010444    0.000000    0.000000    0.000000
     2        -0.435255603285751    1.687e-02    0.010962    0.000000    0.000000    0.000000
     3        -0.437360930732900    8.507e-03    0.012812    0.000000    0.000000    0.000000
     4        -0.437236642840196    2.503e-03    0.013170    0.000000    0.000000    0.000000
     5        -0.437221787780610    1.302e-03    0.013324    0.000000    0.000000    0.000000
     6        -0.437247987533118    5.078e-04    0.013345    0.000000    0.000000    0.000000
     7        -0.437252673136903    2.541e-04    0.013339    0.000000    0.000000    0.000000
     8        -0.437253290334894    7.557e-05    0.013334    0.000000    0.000000    0.000000
     9        -0.437254603293775    3.731e-05    0.013335    0.000000    0.000000    0.000000
    10        -0.437253207167965    1.705e-05    0.013335    0.000000    0.000000    0.000000
    11        -0.437253319482032    9.683e-06    0.013335    0.000000    0.000000    0.000000
    12        -0.437253270711292    4.621e-06    0.013336    0.000000    0.000000    0.000000
    13        -0.437253294990095    1.992e-06    0.013336    0.000000    0.000000    0.000000
    14        -0.437253348205769    7.911e-07    0.013336    0.000000    0.000000    0.000000
    15        -0.437253350576690    2.016e-07    0.013336    0.000000    0.000000    0.000000
    16        -0.437253351008266    1.147e-07    0.013336    0.000000    0.000000    0.000000
    17        -0.437253352060911    3.397e-08    0.013336    0.000000    0.000000    0.000000
    18        -0.437253351572004    1.532e-08    0.013336    0.000000    0.000000    0.000000

      * MP2 total energy                      = -151.289048092924133
      * CCSD total energy                     = -151.309971852292733
      * CCSD(T) total energy                     = -151.322275754095813
*** Psi4 exiting successfully. Buy a developer a beer!
