                               Psi4 1.3.2 release

  ==> Input File <==

--------------------------------------------------------------------------
memory 4 GB

molecule  {
0 3
O   -1.626052396214   -0.021773618994    0.000000000000
H   -0.663279771014   -0.020788717798    0.000000000000
H   -1.861527842187    0.908372819357    0.000000000000
O    1.785138229097   -0.034152248510    0.000000000000
}
set {
basis aug-cc-pvtz
reference uhf
e_convergence 10
scf_type pk
freeze_core true
}

set ccenergy {
e_convergence 10
r_convergence 10
}

e = energy('ccsd(t)')

print_out('Stephenergy {}'.format(e))

--------------------------------------------------------------------------

    Molecular point group: cs

    Geometry (in Angstrom), charge = 0, multiplicity = 3:

       Center              X                  Y                   Z               Mass
    ------------   -----------------  -----------------  -----------------  -----------------
         O           -1.626052396214    -0.021773618994     0.000000000000    15.994914619570
         H           -0.663279771014    -0.020788717798     0.000000000000     1.007825032230
         H           -1.861527842187     0.908372819357     0.000000000000     1.007825032230
         O            1.785138229097    -0.034152248510     0.000000000000    15.994914619570

  Charge       = 0
  Multiplicity = 3
  Basis Set: AUG-CC-PVTZ
    Blend: AUG-CC-PVTZ

    Orbital Energies [Eh]
    ---------------------

    Alpha Occupied:

       1Ap   -20.731244     2Ap   -20.561130     3Ap    -1.440084
       4Ap    -1.345564     5Ap    -0.730971     1App   -0.730877
       6Ap    -0.709981     7Ap    -0.633302     8Ap    -0.578082
       2App   -0.503973

    Alpha Virtual:

       9Ap     0.034230    10Ap     0.053395    11Ap     0.128520
       3App    0.132323    12Ap     0.147494    13Ap     0.160470
      14Ap     0.182864     4App    0.183427    15Ap     0.207469
      16Ap     0.236442    17Ap     0.268953     5App    0.281275
      18Ap     0.290393     6App    0.318953    19Ap     0.362658
      20Ap     0.387572    21Ap     0.457753    22Ap     0.555607
       7App    0.603032    23Ap     0.607936    24Ap     0.643765
      25Ap     0.666663     8App    0.689230    26Ap     0.711951
       9App    0.733513    10App    0.747365    27Ap     0.758782
      28Ap     0.789858    11App    0.824774    29Ap     0.839064
      30Ap     0.854139    12App    0.876720    31Ap     0.914403
      32Ap     0.930244    13App    0.938583    33Ap     0.949888
      14App    0.974517    34Ap     0.978004    35Ap     1.039749
      36Ap     1.089565    15App    1.164347    37Ap     1.171479
      38Ap     1.215035    16App    1.216252    39Ap     1.265886
      40Ap     1.279956    17App    1.522698    41Ap     1.538606
      18App    1.591716    42Ap     1.610193    43Ap     1.805478
      44Ap     1.814226    19App    1.978359    45Ap     1.978416
      46Ap     2.004742    20App    2.009740    47Ap     2.019672
      21App    2.035449    48Ap     2.042317    22App    2.093232
      49Ap     2.127522    50Ap     2.142942    23App    2.167259
      51Ap     2.245990    24App    2.287488    52Ap     2.326728
      53Ap     2.373892    25App    2.430628    54Ap     2.454744
      26App    2.463590    55Ap     2.487435    56Ap     2.552069
      57Ap     2.657346    27App    2.723497    58Ap     2.726427
      59Ap     2.858279    60Ap     2.914082    28App    2.936868
      61Ap     3.687473    62Ap     3.821217    29App    4.029728
      30App    4.054354    63Ap     4.069142    31App    4.147172
      64Ap     4.186830    65Ap     4.269112    32App    4.295465
      66Ap     4.364354    33App    4.390285    67Ap     4.429892
      34App    4.430545    68Ap     4.564607    69Ap     4.774937
      70Ap     4.940763    35App    5.155855    71Ap     5.179642
      72Ap     5.301044    73Ap     5.372932    36App    5.528483
      74Ap     5.683563    75Ap     6.192528    37App    6.313680
      76Ap     6.313702    38App    6.367061    77Ap     6.368339
      39App    6.471686    78Ap     6.489222    79Ap     6.533299
      80Ap     6.598630    40App    6.717786    81Ap     6.813953
      41App    6.818235    82Ap     6.915368    42App    6.925738
      83Ap     6.953911    84Ap     7.040193    43App    7.142110
      44App    7.271784    85Ap     7.320954    45App    7.325292
      86Ap     7.351636    46App    7.414605    87Ap     7.640784
      88Ap     7.931880    89Ap     7.956318    90Ap     8.813058
      91Ap     9.031116    92Ap    16.364693

    Beta Occupied:

       1Ap   -20.652493     2Ap   -20.561209     3Ap    -1.345877
       4Ap    -1.097541     5Ap    -0.709757     6Ap    -0.581194
       7Ap    -0.540731     1App   -0.504014

    Beta Virtual:

       8Ap     0.034133     9Ap     0.047311     2App    0.049769
      10Ap     0.058544    11Ap     0.143361    12Ap     0.151654
       3App    0.160068    13Ap     0.179717    14Ap     0.207798
      15Ap     0.217597     4App    0.226553    16Ap     0.245362
      17Ap     0.271283     5App    0.281482    18Ap     0.293005
       6App    0.320606    19Ap     0.366017    20Ap     0.394882
      21Ap     0.458244    22Ap     0.557806     7App    0.635848
      23Ap     0.638461    24Ap     0.646811    25Ap     0.670123
       8App    0.703158    26Ap     0.712593     9App    0.734356
      10App    0.748457    27Ap     0.773196    28Ap     0.801292
      29Ap     0.845752    11App    0.861055    30Ap     0.912157
      12App    0.926884    31Ap     0.930878    32Ap     0.946459
      13App    0.948628    33Ap     0.968676    34Ap     1.009314
      14App    1.023038    35Ap     1.041452    36Ap     1.099384
      15App    1.168463    37Ap     1.174525    16App    1.224662
      38Ap     1.257444    39Ap     1.269805    40Ap     1.289065
      17App    1.523501    41Ap     1.550496    18App    1.592733
      42Ap     1.638314    43Ap     1.808370    44Ap     1.816589
      45Ap     2.016193    19App    2.016514    46Ap     2.017175
      20App    2.039755    47Ap     2.048031    21App    2.129776
      48Ap     2.170679    49Ap     2.177607    22App    2.179249
      50Ap     2.181678    23App    2.216911    51Ap     2.284012
      24App    2.288980    52Ap     2.334883    53Ap     2.390014
      25App    2.433583    54Ap     2.456629    26App    2.471606
      55Ap     2.494457    56Ap     2.557936    57Ap     2.664471
      27App    2.724120    58Ap     2.728922    59Ap     2.862020
      60Ap     2.916085    28App    2.937530    61Ap     3.687789
      62Ap     3.822410    29App    4.030314    30App    4.130284
      63Ap     4.176457    31App    4.241299    64Ap     4.241593
      65Ap     4.277248    32App    4.295498    66Ap     4.380869
      33App    4.390545    34App    4.432050    67Ap     4.460805
      68Ap     4.565314    69Ap     4.776129    70Ap     4.941534
      35App    5.155841    71Ap     5.180050    72Ap     5.301249
      73Ap     5.373722    36App    5.528486    74Ap     5.683895
      75Ap     6.193345    37App    6.422635    76Ap     6.422651
      38App    6.443149    77Ap     6.444590    78Ap     6.521868
      39App    6.527484    79Ap     6.556446    80Ap     6.645701
      40App    6.720342    81Ap     6.916115    41App    7.005503
      82Ap     7.006183    42App    7.035086    83Ap     7.061435
      84Ap     7.122957    43App    7.144078    44App    7.271951
      85Ap     7.321134    45App    7.325870    86Ap     7.351836
      46App    7.415146    87Ap     7.642976    88Ap     7.932322
      89Ap     7.956550    90Ap     8.816195    91Ap     9.105582
      92Ap    16.365011

    Final Occupation by Irrep:
             Ap   App
    DOCC [     7,    1 ]
    SOCC [     1,    1 ]

  @UHF Final Energy:  -150.87474864516977

   => Energetics <=

    Nuclear Repulsion Energy =             21.9394784984942142
    One-Electron Energy =                -251.6704313477872859
    Two-Electron Energy =                  78.8562042041232871
    Total Energy =                       -150.8747486451697739

  UHF NO Occupations:
  HONO-2 :    7 Ap 1.9970391
  HONO-1 :    2App 1.0000000
  HONO-0 :    8 Ap 1.0000000
  LUNO+0 :    9 Ap 0.0029609
  LUNO+1 :   10 Ap 0.0017369
  LUNO+2 :   11 Ap 0.0000024
  LUNO+3 :   12 Ap 0.0000007

Computation Completed

Properties will be evaluated at   0.000000,   0.000000,   0.000000 [a0]

Properties computed using the SCF density matrix

  Nuclear Dipole Moment: [e a0]
     X:    -2.3662      Y:     0.8318      Z:     0.0000

  Electronic Dipole Moment: [e a0]
     X:     2.9191      Y:    -0.2215      Z:     0.0000

  Dipole Moment: [e a0]
     X:     0.5529      Y:     0.6103      Z:     0.0000     Total:     0.8235

  Dipole Moment: [D]
     X:     1.4055      Y:     1.5512      Z:     0.0000     Total:     2.0932

*** tstop() called on d1-14.compute.lan at Tue Mar  9 14:35:06 2021
Module time:
	user time   =      60.37 seconds =       1.01 minutes
	system time =       3.61 seconds =       0.06 minutes
	total time  =          7 seconds =       0.12 minutes
Total time:
	user time   =      60.37 seconds =       1.01 minutes
	system time =       3.61 seconds =       0.06 minutes
	total time  =          7 seconds =       0.12 minutes
 MINTS: Wrapper to libmints.
   by Justin Turney

   Calculation information:
      Number of threads:                12
      Number of atoms:                   4
      Number of AO shells:              46
      Number of SO shells:              46
      Number of primitives:             82
      Number of atomic orbitals:       160
      Number of basis functions:       138

      Number of irreps:                  2
      Integral cutoff                 0.00e+00
      Number of functions per irrep: [  92   46 ]

 OEINTS: Overlap, kinetic, potential, dipole, and quadrupole integrals
         stored in file 35.

      Computing two-electron integrals...done
      Computed 22917839 non-zero two-electron integrals.
        Stored in file 33.

*** tstart() called on d1-14.compute.lan
*** at Tue Mar  9 14:35:10 2021

	Wfn Parameters:
	--------------------
	Wavefunction         = CCSD_T
	Number of irreps     = 2
	Number of MOs        = 138
	Number of active MOs = 136
	AO-Basis             = NONE
	Semicanonical        = false
	Reference            = UHF
	Print Level          = 1

	IRREP	# MOs	# FZDC	# DOCC	# SOCC	# VIRT	# FZVR
	-----	-----	------	------	------	------	------
	 Ap	   92	    2	    5	    1	    84	    0
	 App	   46	    0	    1	    1	    44	    0
	Transforming integrals...
	IWL integrals will be deleted.
	(OO|OO)...
	Presorting SO-basis two-electron integrals.
	Sorting File: SO Ints (nn|nn) nbuckets = 1
	Transforming the one-electron integrals and constructing Fock matrices
	Starting AA/AB first half-transformation.
	Sorting AA/AB half-transformed integrals.
	Starting BB first half-transformation.
	Sorting BB half-transformed integrals.
	First half integral transformation complete.
	Starting AA second half-transformation.
	Starting AB second half-transformation.
	Starting BB second half-transformation.
	Two-electron integral transformation complete.
	(OO|OV)...
	Starting AA second half-transformation.
	Starting AB second half-transformation.
	Starting BB second half-transformation.
	Two-electron integral transformation complete.
	(OO|VV)...
	Starting AA second half-transformation.
	Starting AB second half-transformation.
	Starting BB second half-transformation.
	Two-electron integral transformation complete.
	(OV|OO)...
	Starting AA/AB first half-transformation.
	Sorting AA/AB half-transformed integrals.
	Starting BB first half-transformation.
	Sorting BB half-transformed integrals.
	First half integral transformation complete.
	Starting AA second half-transformation.
	Starting AB second half-transformation.
	Starting BB second half-transformation.
	Two-electron integral transformation complete.
	(OV|OV)...
	Starting AA second half-transformation.
	Starting AB second half-transformation.
	Starting BB second half-transformation.
	Two-electron integral transformation complete.
	(OV|VV)...
	Starting AA second half-transformation.
	Starting AB second half-transformation.
	Starting BB second half-transformation.
	Two-electron integral transformation complete.
	(VV|OO)...
	Starting AA/AB first half-transformation.
	Sorting AA/AB half-transformed integrals.
	Starting BB first half-transformation.
	Sorting BB half-transformed integrals.
	First half integral transformation complete.
	Starting AA second half-transformation.
	Starting AB second half-transformation.
	Starting BB second half-transformation.
	Two-electron integral transformation complete.
	(VV|OV)...
	Starting AA second half-transformation.
	Starting AB second half-transformation.
	Starting BB second half-transformation.
	Two-electron integral transformation complete.
	(VV|VV)...
	Starting AA second half-transformation.
	Starting AB second half-transformation.
	Starting BB second half-transformation.
	Two-electron integral transformation complete.
	Frozen core energy     =   -125.47013295368090

	Size of irrep 0 of <AB|CD> integrals:     19.643 (MW) /    157.141 (MB)
	Size of irrep 1 of <AB|CD> integrals:     13.660 (MW) /    109.283 (MB)
	Total:                                    33.303 (MW) /    266.424 (MB)

	Size of irrep 0 of <ab|cd> integrals:     20.794 (MW) /    166.349 (MB)
	Size of irrep 1 of <ab|cd> integrals:     14.631 (MW) /    117.045 (MB)
	Total:                                    35.424 (MW) /    283.394 (MB)

	Size of irrep 0 of <Ab|Cd> integrals:     83.174 (MW) /    665.395 (MB)
	Size of irrep 1 of <Ab|Cd> integrals:     56.550 (MW) /    452.403 (MB)
	Total:                                   139.725 (MW) /   1117.798 (MB)

	Size of irrep 0 of <IA|BC> integrals:      5.323 (MW) /     42.586 (MB)
	Size of irrep 1 of <IA|BC> integrals:      3.193 (MW) /     25.547 (MB)
	Total:                                     8.517 (MW) /     68.133 (MB)

	Size of irrep 0 of <ia|bc> integrals:      4.348 (MW) /     34.780 (MB)
	Size of irrep 1 of <ia|bc> integrals:      2.372 (MW) /     18.972 (MB)
	Total:                                     6.719 (MW) /     53.752 (MB)

	Size of irrep 0 of <Ia|Bc> integrals:      5.472 (MW) /     43.776 (MB)
	Size of irrep 1 of <Ia|Bc> integrals:      3.309 (MW) /     26.470 (MB)
	Total:                                     8.781 (MW) /     70.246 (MB)

	Size of irrep 0 of <iA|bC> integrals:      4.232 (MW) /     33.853 (MB)
	Size of irrep 1 of <iA|bC> integrals:      2.286 (MW) /     18.289 (MB)
	Total:                                     6.518 (MW) /     52.142 (MB)

	Size of irrep 0 of tIjAb amplitudes:       0.292 (MW) /      2.335 (MB)
	Size of irrep 1 of tIjAb amplitudes:       0.120 (MW) /      0.963 (MB)
	Total:                                     0.412 (MW) /      3.297 (MB)

	Nuclear Rep. energy          =     21.93947849849421
	SCF energy                   =   -150.87474864516977
	One-electron energy          =    -83.23624046811722
	Two-electron (AA) energy     =      9.94424735895623
	Two-electron (BB) energy     =      5.29293822725857
	Two-electron (AB) energy     =     20.65496069191830
	Two-electron energy          =     35.89214627813310
	Reference energy             =   -150.87474864517083

*** tstop() called on d1-14.compute.lan at Tue Mar  9 14:36:20 2021
Module time:
	user time   =     382.07 seconds =       6.37 minutes
	system time =      61.38 seconds =       1.02 minutes
	total time  =         70 seconds =       1.17 minutes
Total time:
	user time   =     449.20 seconds =       7.49 minutes
	system time =      65.97 seconds =       1.10 minutes
	total time  =         81 seconds =       1.35 minutes
            **************************
            *                        *
            *        CCENERGY        *
            *                        *
            **************************

    Nuclear Rep. energy (wfn)     =   21.939478498494214
    SCF energy          (wfn)     = -150.874748645169774
    Reference energy    (file100) = -150.874748645170826

    Input parameters:
    -----------------
    Wave function   =     CCSD_T
    Reference wfn   =     UHF
    Brueckner       =     No
    Memory (Mbytes) =     4000.0
    Maxiter         =     50
    R_Convergence   =     1.0e-10
    E_Convergence   =     1.0e-10
    Restart         =     Yes
    DIIS            =     Yes
    AO Basis        =     NONE
    ABCD            =     NEW
    Cache Level     =     2
    Cache Type      =     LRU
    Print Level     =     1
    Num. of threads =     12
    # Amps to Print =     10
    Print MP2 Amps? =     No
    Analyze T2 Amps =     No
    Print Pair Ener =     No
    Local CC        =     No
    SCS-MP2         =     False
    SCSN-MP2        =     False
    SCS-CCSD        =     False

MP2 correlation energy -0.4160381679546088
                Solving CC Amplitude Equations
                ------------------------------
  Iter             Energy              RMS        T1Diag      D1Diag    New D1Diag    D2Diag
  ----     ---------------------    ---------   ----------  ----------  ----------   --------
     0        -0.416038167954609    0.000e+00    0.000000    0.000000    0.000000    0.000000
     1        -0.426835273638295    5.659e-02    0.010445    0.000000    0.000000    0.000000
     2        -0.434910542008453    1.683e-02    0.010927    0.000000    0.000000    0.000000
     3        -0.437023016483629    8.468e-03    0.012762    0.000000    0.000000    0.000000
     4        -0.436897530049893    2.517e-03    0.013112    0.000000    0.000000    0.000000
     5        -0.436885898174287    1.273e-03    0.013257    0.000000    0.000000    0.000000
     6        -0.436911937951244    5.023e-04    0.013271    0.000000    0.000000    0.000000
     7        -0.436916044892482    2.279e-04    0.013260    0.000000    0.000000    0.000000
     8        -0.436916807282839    7.677e-05    0.013254    0.000000    0.000000    0.000000
     9        -0.436918039156084    4.679e-05    0.013254    0.000000    0.000000    0.000000
    10        -0.436916842669931    3.840e-05    0.013254    0.000000    0.000000    0.000000
    11        -0.436916940202163    3.693e-05    0.013254    0.000000    0.000000    0.000000
    12        -0.436916795543282    3.626e-05    0.013255    0.000000    0.000000    0.000000
    13        -0.436916710498442    3.575e-05    0.013256    0.000000    0.000000    0.000000
    14        -0.436917178226845    3.477e-05    0.013262    0.000000    0.000000    0.000000
    15        -0.436917245170847    3.225e-05    0.013277    0.000000    0.000000    0.000000
    16        -0.436917200678095    2.633e-05    0.013353    0.000000    0.000000    0.000000
    17        -0.436917145864853    1.512e-05    0.013406    0.000000    0.000000    0.000000
    18        -0.436917068401628    6.772e-06    0.013428    0.000000    0.000000    0.000000
    19        -0.436917239563493    2.971e-06    0.013433    0.000000    0.000000    0.000000
    20        -0.436917327387107    1.408e-06    0.013434    0.000000    0.000000    0.000000
    21        -0.436917332722424    5.787e-07    0.013434    0.000000    0.000000    0.000000
    22        -0.436917332896675    2.258e-07    0.013434    0.000000    0.000000    0.000000
    23        -0.436917333193801    9.814e-08    0.013434    0.000000    0.000000    0.000000
    24        -0.436917333005740    4.160e-08    0.013434    0.000000    0.000000    0.000000
    25        -0.436917333708594    2.157e-08    0.013434    0.000000    0.000000    0.000000
    26        -0.436917334082866    7.257e-09    0.013434    0.000000    0.000000    0.000000
    27        -0.436917334159083    2.346e-09    0.013434    0.000000    0.000000    0.000000
    28        -0.436917334186736    1.146e-09    0.013434    0.000000    0.000000    0.000000
    29        -0.436917334186149    6.980e-10    0.013434    0.000000    0.000000    0.000000
    30        -0.436917334176043    4.811e-10    0.013434    0.000000    0.000000    0.000000
    31        -0.436917334170739    3.958e-10    0.013434    0.000000    0.000000    0.000000
    32        -0.436917334168947    3.723e-10    0.013434    0.000000    0.000000    0.000000
    33        -0.436917334167856    3.614e-10    0.013434    0.000000    0.000000    0.000000
    34        -0.436917334166975    3.389e-10    0.013434    0.000000    0.000000    0.000000
    35        -0.436917334166171    2.806e-10    0.013434    0.000000    0.000000    0.000000
    36        -0.436917334167036    1.812e-10    0.013434    0.000000    0.000000    0.000000

      * MP2 total energy                      = -151.290786813125436
      * CCSD total energy                     = -151.311665979336652
      * CCSD(T) total energy                     = -151.323932332348647
*** Psi4 exiting successfully. Buy a developer a beer!
