                               Psi4 1.4a2.dev191

  ==> Input File <==

--------------------------------------------------------------------------
memory 10 GB
molecule {
0 2
O
H 1 R1
R1 = 0.9478992047
}
set {
basis aug-cc-pvdz
e_convergence 10
g_convergence gau_verytight
reference uhf
scf_type pk
mp2_type conv
}

optimize("mp2")

--------------------------------------------------------------------------

    Molecular point group: c2v
  Charge       = 0
  Multiplicity = 2
  Basis Set: AUG-CC-PVDZ
    Blend: AUG-CC-PVDZ
  @UHF Final Energy:   -75.40382419967227
    Total Energy =                        -75.4038241996722860
    Molecular point group: c2v
  Basis Set: AUG-CC-PVDZ
    Blend: AUG-CC-PVDZ
  @UHF Final Energy:   -75.40352746926571
    Total Energy =                        -75.4035274692657254
  Basis Set: AUG-CC-PVDZ
    Blend: AUG-CC-PVDZ
  @UHF Final Energy:   -75.40349073486163
    Total Energy =                        -75.4034907348616343
  Basis Set: AUG-CC-PVDZ
    Blend: AUG-CC-PVDZ
  @UHF Final Energy:   -75.40348738565467
    Total Energy =                        -75.4034873856546710
  Charge       = 0
  Multiplicity = 2
  Basis Set: AUG-CC-PVDZ
    Blend: AUG-CC-PVDZ

    Orbital Energies [Eh]
    ---------------------

    Alpha Occupied:

       1A1   -20.651774     2A1    -1.391641     3A1    -0.682879
       1B2    -0.656937     1B1    -0.561400

    Alpha Virtual:

       4A1     0.035635     5A1     0.178328     2B2     0.185249
       2B1     0.198166     6A1     0.225292     7A1     0.315801
       3B2     0.385888     3B1     0.396189     8A1     0.624915
       9A1     0.839411     1A2     0.956603    10A1     0.958312
       4B2     1.086621     4B1     1.117030    11A1     1.316478
       5B2     1.327625     5B1     1.386498    12A1     1.660371
       6B2     2.010461     6B1     2.028157    13A1     2.484235
      14A1     2.759554    15A1     3.484212     2A2     3.484332
       7B2     3.591402     7B1     3.651663    16A1     4.089431

    Beta Occupied:

       1A1   -20.610854     2A1    -1.233490     3A1    -0.638620
       1B1    -0.511702

    Beta Virtual:

       4A1     0.037110     1B2     0.064603     5A1     0.181784
       2B1     0.201627     6A1     0.232135     2B2     0.258003
       7A1     0.320932     3B1     0.395726     3B2     0.408898
       8A1     0.639738     9A1     0.849477     1A2     0.995286
      10A1     0.996363     4B1     1.119281     4B2     1.132162
      11A1     1.331569     5B1     1.409740     5B2     1.498255
      12A1     1.683455     6B2     2.018164     6B1     2.024760
      13A1     2.516320    14A1     2.775437     2A2     3.584633
      15A1     3.585339     7B1     3.670417     7B2     3.688226
      16A1     4.123657

    Final Occupation by Irrep:
             A1    A2    B1    B2
    DOCC [     3,    0,    1,    0 ]
    SOCC [     0,    0,    0,    1 ]

  @UHF Final Energy:   -75.40348708697518

   => Energetics <=

    Nuclear Repulsion Energy =              4.3433002962996587
    One-Electron Energy =                -112.5542779829391122
    Two-Electron Energy =                  32.8074905996642769
    Total Energy =                        -75.4034870869751757

  UHF NO Occupations:
  HONO-2 :    2 A1 1.9992369
  HONO-1 :    3 A1 1.9980087
  HONO-0 :    1 B2 1.0000000
  LUNO+0 :    4 A1 0.0019913
  LUNO+1 :    5 A1 0.0007631
  LUNO+2 :    2 B1 0.0005597
  LUNO+3 :    6 A1 0.0000004

Computation Completed

Properties will be evaluated at   0.000000,   0.000000,   0.000000 [a0]

Properties computed using the SCF density matrix

  Nuclear Dipole Moment: [e a0]
     X:     0.0000      Y:     0.0000      Z:     0.8593

  Electronic Dipole Moment: [e a0]
     X:     0.0000      Y:     0.0000      Z:    -0.1612

  Dipole Moment: [e a0]
     X:     0.0000      Y:     0.0000      Z:     0.6981     Total:     0.6981

  Dipole Moment: [D]
     X:     0.0000      Y:     0.0000      Z:     1.7745     Total:     1.7745

*** tstop() called on c4-9.compute.lan at Tue Feb 23 13:25:48 2021
Module time:
	user time   =       0.31 seconds =       0.01 minutes
	system time =       0.01 seconds =       0.00 minutes
	total time  =          0 seconds =       0.00 minutes
Total time:
	user time   =       3.05 seconds =       0.05 minutes
	system time =       0.58 seconds =       0.01 minutes
	total time  =          4 seconds =       0.07 minutes
 MINTS: Wrapper to libmints.
   by Justin Turney

   Calculation information:
      Number of threads:                 1
      Number of atoms:                   2
      Number of AO shells:              14
      Number of SO shells:              14
      Number of primitives:             32
      Number of atomic orbitals:        34
      Number of basis functions:        32

      Number of irreps:                  4
      Integral cutoff                 0.00e+00
      Number of functions per irrep: [  16    2    7    7 ]

 OEINTS: Overlap, kinetic, potential, dipole, and quadrupole integrals
         stored in file 35.

      Computing two-electron integrals...done
      Computed 33337 non-zero two-electron integrals.
        Stored in file 33.

*** tstart() called on c4-9.compute.lan
*** at Tue Feb 23 13:25:48 2021

 ==============================================================================
 ==============================================================================
 ==============================================================================

                       MP2
              Program Written by Ugur Bozkaya,
              Latest Revision June 25, 2014.

 ==============================================================================
 ==============================================================================
 ==============================================================================

	RMS orbital gradient is changed to :     1.00e-07
	MAX orbital gradient is changed to :     1.00e-04
	MO spaces per irreps...

	IRREP   FC   AOCC  BOCC  AVIR    BVIR  FV
	==========================================
	  A1     0     3     3    13     13     0
	  A2     0     0     0     2      2     0
	  B1     0     1     1     6      6     0
	  B2     0     1     0     6      7     0
	==========================================

	Computing MP2 energy using SCF MOs (Canonical MP2)...
	==============================================================================
	Nuclear Repulsion Energy (a.u.)    :     4.34330029629966
	SCF Energy (a.u.)                  :   -75.40348708697518
	REF Energy (a.u.)                  :   -75.40348708697518
	Alpha-Alpha Contribution (a.u.)    :    -0.02720017265670
	Alpha-Beta Contribution (a.u.)     :    -0.12390552348279
	Beta-Beta Contribution (a.u.)      :    -0.01313136609167
	Scaled_SS Correlation Energy (a.u.):    -0.01344384624946
	Scaled_OS Correlation Energy (a.u.):    -0.14868662817934
	SCS-MP2 Total Energy (a.u.)        :   -75.56561756140398
	SOS-MP2 Total Energy (a.u.)        :   -75.40348708697518
	SCSN-MP2 Total Energy (a.u.)       :   -75.47447059517231
	SCS-MP2-VDW Total Energy (a.u.)    :   -75.58225192640732
	SOS-PI-MP2 Total Energy (a.u.)     :   -75.57695481985108
	MP2 Correlation Energy (a.u.)      :    -0.16423706223115
	MP2 Total Energy (a.u.)            :   -75.56772414920633
	==============================================================================
	Analytic gradient computation is starting...
	Computing response density matrices...
	Computing off-diagonal blocks of GFM...
	Forming independent-pairs...
	Number of alpha independent-pairs: 51
	Number of beta independent-pairs : 45
	Computing orbital gradient...
	Computing diagonal blocks of GFM...
	Solving orbital Z-vector equations...
	Forming relaxed response density matrices...
	Forming relaxed GFM...
	Writing particle density matrices and GFM to disk...
	Necessary information has been sent to DERIV, which will take care of the rest.

*** tstop() called on c4-9.compute.lan at Tue Feb 23 13:25:48 2021
Module time:
	user time   =       0.06 seconds =       0.00 minutes
	system time =       0.11 seconds =       0.00 minutes
	total time  =          0 seconds =       0.00 minutes
Total time:
	user time   =       3.16 seconds =       0.05 minutes
	system time =       0.70 seconds =       0.01 minutes
	total time  =          4 seconds =       0.07 minutes
  Cartesian Displacement SALCs
  By SALC:
  Number of SALCs: 2, nirreps: A1
  Project out translations: False
  Project out rotations: False
	irrep = 0, ncomponent = 1
		0: atom 0, direction z, coef 1.000000
	irrep = 0, ncomponent = 1
		0: atom 1, direction z, coef 1.000000

  By Atomic Center:
  Number of atomic centers: 2
   Atomic Center 0:
	x component, size = 0
	y component, size = 0
	z component, size = 1
		0: salc 0, irrep 0, coef 1.000000
   Atomic Center 1:
	x component, size = 0
	y component, size = 0
	z component, size = 1
		0: salc 1, irrep 0, coef 1.000000

    Molecular point group: c2v
    Full point group: C_inf_v

    Geometry (in Bohr), charge = 0, multiplicity = 2:

       Center              X                  Y                   Z
    ------------   -----------------  -----------------  -----------------
         O            0.000000000000     0.000000000000    -0.109178309539
         H            0.000000000000     0.000000000000     1.732739000857

	Presorting MO-basis TPDMs.
	Sorting File: MO TPDM (AA|AA) nbuckets = 1
	Sorting File: MO TPDM (AA|aa) nbuckets = 1
	Sorting File: MO TPDM (aa|aa) nbuckets = 1
	Starting first half-transformation.
	Sorting half-transformed TPDMs.
	First half integral transformation complete.

  -Nuclear Repulsion Energy 1st Derivatives:
     Atom            X                  Y                   Z
    ------   -----------------  -----------------  -----------------
       1        0.000000000000     0.000000000000     2.358032182980
       2        0.000000000000     0.000000000000    -2.358032182980

  -Core Hamiltonian Gradient:
     Atom            X                  Y                   Z
    ------   -----------------  -----------------  -----------------
       1        0.000000000000     0.000000000000    -5.810932753649
       2        0.000000000000     0.000000000000     5.810932753649

  -Lagrangian contribution to gradient:
     Atom            X                  Y                   Z
    ------   -----------------  -----------------  -----------------
       1        0.000000000000     0.000000000000     0.421254814510
       2        0.000000000000     0.000000000000    -0.421254814510

  -Two-electron contribution to gradient:
     Atom            X                  Y                   Z
    ------   -----------------  -----------------  -----------------
       1        0.000000000000     0.000000000000     3.031646485177
       2        0.000000000000     0.000000000000    -3.031646485177

  -Total gradient:
     Atom            X                  Y                   Z
    ------   -----------------  -----------------  -----------------
       1        0.000000000000     0.000000000000     0.000000729017
       2        0.000000000000     0.000000000000    -0.000000729017

			-----------------------------------------
			 OPTKING 2.0: for geometry optimizations
			  - R.A. King,  Bethel University
			-----------------------------------------

	Previous internal coordinate definitions found.
	---Fragment 1 Geometry and Gradient---
	 O           0.0000000000        0.0000000000       -0.1091783095
	 H           0.0000000000        0.0000000000        1.7327390009
	             0.0000000000        0.0000000000        0.0000007290
	             0.0000000000        0.0000000000       -0.0000007290

	---Fragment 1 Intrafragment Coordinates---
	 - Coordinate -           - BOHR/RAD -       - ANG/DEG -
	 R(1,2)           =         1.841917	       0.974701

	Current energy   :       -75.5677241492

	Energy change for the previous step:
		Projected    :        -0.0000000000
		Actual       :        -0.0000000001

	Performing BFGS update.
	Previous computed or guess Hessian on step 1.
	Denominators (dg)(dq) or (dq)(dq) are very small.
	 Skipping Hessian update for step 4.
	Denominators (dg)(dq) or (dq)(dq) are very small.
	 Skipping Hessian update for step 3.
	Steps to be used in Hessian update: 2 1
	Taking RFO optimization step.
	Going to follow RFO solution 1.
	Using RFO vector 1.
	Norm of target step-size    0.00000
	Projected energy change by RFO approximation:        -0.0000000000

	Back-transformation to cartesian coordinates...
	Successfully converged to displaced geometry.

	--- Internal Coordinate Step in ANG or DEG, aJ/ANG or AJ/DEG ---
	 ---------------------------------------------------------------------------
	   Coordinate                Previous        Force       Change         New
	   ----------                --------       ------       ------       ------
	    1 R(1,2)          =      0.974701     0.000006     0.000001     0.974701
	 ---------------------------------------------------------------------------
	Successfully symmetrized geometry.

  ==> Convergence Check <==

  Measures of convergence in internal coordinates in au.
  Criteria marked as inactive (o), active & met (*), and active & unmet ( ).
  ---------------------------------------------------------------------------------------------
   Step     Total Energy     Delta E     MAX Force     RMS Force      MAX Disp      RMS Disp
  ---------------------------------------------------------------------------------------------
    Convergence Criteria             o    2.00e-06 *    1.00e-06 *    6.00e-06 *    4.00e-06 *
  ---------------------------------------------------------------------------------------------
      5     -75.56772415   -6.01e-11 o    7.29e-07 *    7.29e-07 *    1.30e-06 *    1.30e-06 *  ~
  ---------------------------------------------------------------------------------------------

  **** Optimization is complete! (in 5 steps) ****

  ==> Optimization Summary <==

  Measures of convergence in internal coordinates in au.
  --------------------------------------------------------------------------------------------------------------- ~
   Step         Total Energy             Delta E       MAX Force       RMS Force        MAX Disp        RMS Disp  ~
  --------------------------------------------------------------------------------------------------------------- ~
      1     -75.567028294555    -75.567028294555      0.02834240      0.02834240      0.04861682      0.04861682  ~
      2     -75.567723094111     -0.000694799556      0.00103975      0.00103975      0.00185143      0.00185143  ~
      3     -75.567724140891     -0.000001046781      0.00009210      0.00009210      0.00016453      0.00016453  ~
      4     -75.567724149146     -0.000000008255      0.00000819      0.00000819      0.00001464      0.00001464  ~
      5     -75.567724149206     -0.000000000060      0.00000073      0.00000073      0.00000130      0.00000130  ~
  --------------------------------------------------------------------------------------------------------------- ~

	Writing optimization data to binary file.
	Final energy is    -75.5677241492063
	Final (previous) structure:
	Cartesian Geometry (in Angstrom)
	    O     0.0000000000   0.0000000000  -0.0577746731
	    H     0.0000000000   0.0000000000   0.9169259877
	Saving final (previous) structure.
			--------------------------
			 OPTKING Finished Execution
			--------------------------

    Final optimized geometry and variables:
    Molecular point group: c2v
    Full point group: C_inf_v

    Geometry (in Angstrom), charge = 0, multiplicity = 2:

    O
    H             1          R1

    R1        =    0.9747006646

	Removing binary optimization data file.
	Cleaning optimization helper files.

    Psi4 stopped on: Tuesday, 23 February 2021 01:25PM
    Psi4 wall time for execution: 0:00:04.56

*** Psi4 exiting successfully. Buy a developer a beer!
