                               Psi4 1.3.2 release

  ==> Input File <==

--------------------------------------------------------------------------
memory 4 GB

molecule  {
0 3
O    0.000000000000    0.000000000000    1.263068531563
H    0.000000000000   -0.760458395200    1.852487610637
H   -0.000000000000    0.760458395200    1.852487610637
O    0.000000000000    0.000000000000   -1.496515652763
}
set {
basis aug-cc-pvtz
reference uhf
e_convergence 10
scf_type pk
freeze_core true
}

set ccenergy {
e_convergence 10
r_convergence 10
}

e = energy('ccsd(t)')

print_out('Stephenergy {}'.format(e))

--------------------------------------------------------------------------

    Molecular point group: c2v

    Geometry (in Angstrom), charge = 0, multiplicity = 3:

       Center              X                  Y                   Z               Mass
    ------------   -----------------  -----------------  -----------------  -----------------
         O           -0.000000000000     0.000000000000     1.263068531563    15.994914619570
         H            0.000000000000    -0.760458395200     1.852487610637     1.007825032230
         H           -0.000000000000     0.760458395200     1.852487610637     1.007825032230
         O           -0.000000000000     0.000000000000    -1.496515652763    15.994914619570

  Charge       = 0
  Multiplicity = 3
  Basis Set: AUG-CC-PVTZ
    Blend: AUG-CC-PVTZ

    Orbital Energies [Eh]
    ---------------------

    Alpha Occupied:

       1A1   -20.684226     2A1   -20.571314     3A1    -1.393700
       4A1    -1.355047     1B2    -0.718574     5A1    -0.688131
       1B1    -0.684979     6A1    -0.586174     2B2    -0.585988
       2B1    -0.513987

    Alpha Virtual:

       7A1     0.029553     3B2     0.047664     8A1     0.118410
       3B1     0.154179     9A1     0.159443     4B2     0.180240
       5B2     0.187141     4B1     0.192813    10A1     0.198081
       1A2     0.263664     6B2     0.264261    11A1     0.265200
      12A1     0.314402     5B1     0.326976    13A1     0.376027
       7B2     0.380349    14A1     0.449784     8B2     0.464200
       9B2     0.600076     6B1     0.643960    15A1     0.647620
       2A2     0.658207    16A1     0.666813    17A1     0.698236
       3A2     0.721727    10B2     0.723635     7B1     0.768416
      18A1     0.792791    19A1     0.819563     8B1     0.837649
      20A1     0.860529     9B1     0.901312    11B2     0.918558
       4A2     0.924824    12B2     0.946502    13B2     0.980696
      21A1     0.990788    10B1     1.014632    22A1     1.046532
      14B2     1.051343    11B1     1.123035     5A2     1.176625
      23A1     1.191699    15B2     1.200266    16B2     1.329217
      24A1     1.335877    25A1     1.449291     6A2     1.507088
      12B1     1.594491    26A1     1.668405    27A1     1.812666
      17B2     1.821348    18B2     1.976041    28A1     2.040951
      13B1     2.048197    19B2     2.054314     7A2     2.057724
      14B1     2.059149    29A1     2.078984    30A1     2.115044
       8A2     2.119176    20B2     2.137122    31A1     2.141041
      15B1     2.147001    32A1     2.252770    21B2     2.271122
      16B1     2.303008     9A2     2.311583    17B1     2.436571
      33A1     2.474084    22B2     2.482365    34A1     2.489176
      35A1     2.697286    18B1     2.716716    23B2     2.721794
      36A1     2.842736    24B2     2.861776    10A2     2.879711
      25B2     3.691267    37A1     3.752730    11A2     4.012525
      19B1     4.078872    20B1     4.099744    38A1     4.141667
      26B2     4.184075    27B2     4.281092    21B1     4.289714
      39A1     4.354285    12A2     4.381762    40A1     4.428805
      22B1     4.452239    28B2     4.514474    41A1     4.790238
      29B2     4.837608    30B2     5.139741    13A2     5.142694
      31B2     5.247362    42A1     5.337674    23B1     5.513965
      43A1     5.684988    44A1     6.197788    24B1     6.390021
      45A1     6.410382    14A2     6.410723    32B2     6.424075
      25B1     6.435889    33B2     6.489239    46A1     6.539375
      34B2     6.581824    26B1     6.717586    27B1     6.903370
      47A1     6.906979    15A2     6.924879    48A1     6.942040
      35B2     6.986600    49A1     7.046448    28B1     7.134236
      29B1     7.278180    16A2     7.304456    36B2     7.307876
      17A2     7.352190    50A1     7.437143    51A1     7.541123
      52A1     7.908649    37B2     7.913156    38B2     8.801701
      53A1     8.875350    54A1    15.755520

    Beta Occupied:

       1A1   -20.605350     2A1   -20.570829     3A1    -1.354335
       4A1    -1.050879     1B2    -0.718228     5A1    -0.588038
       1B1    -0.513294     2B2    -0.495396

    Beta Virtual:

       6A1     0.029392     3B2     0.047745     2B1     0.086710
       7A1     0.092017     8A1     0.141169     9A1     0.166995
       3B1     0.170715     4B2     0.180853     5B2     0.190756
      10A1     0.225580     4B1     0.253430     1A2     0.263667
       6B2     0.264701    11A1     0.288617    12A1     0.316811
       5B1     0.328262     7B2     0.380520    13A1     0.386502
      14A1     0.450863     8B2     0.464404     9B2     0.601716
      15A1     0.660307     6B1     0.667765     2A2     0.672589
      16A1     0.673915    17A1     0.715510     3A2     0.722213
      10B2     0.735816     7B1     0.779847    18A1     0.806728
       8B1     0.846883    19A1     0.850978     4A2     0.925228
      20A1     0.928118    11B2     0.936415    12B2     0.953359
      13B2     0.984532     9B1     0.987319    21A1     0.997855
      14B2     1.052466    22A1     1.052950    10B1     1.061090
      11B1     1.139662     5A2     1.176826    23A1     1.193165
      15B2     1.202979    16B2     1.331644    24A1     1.392529
      25A1     1.487797     6A2     1.507521    12B1     1.596477
      26A1     1.699006    27A1     1.817871    17B2     1.821678
      18B2     1.977480    28A1     2.070375    13B1     2.071044
      19B2     2.071726     7A2     2.082394    29A1     2.099049
      14B1     2.101003    30A1     2.155456    20B2     2.183697
       8A2     2.202350    31A1     2.208747    15B1     2.259700
      32A1     2.310607     9A2     2.311714    16B1     2.318390
      21B2     2.322077    17B1     2.444926    33A1     2.482886
      22B2     2.485231    34A1     2.521586    35A1     2.704321
      18B1     2.718470    23B2     2.722704    36A1     2.855230
      24B2     2.861928    10A2     2.879747    25B2     3.692177
      37A1     3.752863    11A2     4.012555    19B1     4.081156
      38A1     4.173635    26B2     4.219146    20B1     4.259718
      27B2     4.292461    21B1     4.294719    12A2     4.381873
      39A1     4.426076    22B1     4.457531    40A1     4.472217
      28B2     4.514560    41A1     4.801454    29B2     4.837771
      30B2     5.139929    13A2     5.142773    31B2     5.247806
      42A1     5.338318    23B1     5.514081    43A1     5.689751
      44A1     6.199376    24B1     6.485944    14A2     6.487551
      32B2     6.488048    45A1     6.494088    25B1     6.499815
      33B2     6.524379    34B2     6.610414    46A1     6.610940
      26B1     6.725004    47A1     6.958996    15A2     7.038428
      48A1     7.042404    27B1     7.085875    35B2     7.098448
      28B1     7.134670    49A1     7.173787    29B1     7.282331
      16A2     7.304733    36B2     7.308072    17A2     7.352625
      50A1     7.439920    51A1     7.542232    52A1     7.909244
      37B2     7.913520    38B2     8.802088    53A1     8.954606
      54A1    15.755854

    Final Occupation by Irrep:
             A1    A2    B1    B2
    DOCC [     5,    0,    1,    2 ]
    SOCC [     1,    0,    1,    0 ]

  @UHF Final Energy:  -150.87343396110441

   => Energetics <=

    Nuclear Repulsion Energy =             23.8859742469268816
    One-Electron Energy =                -255.8403471946550383
    Two-Electron Energy =                  81.0809389866237353
    Total Energy =                       -150.8734339611044106

  UHF NO Occupations:
  HONO-2 :    5 A1 1.9970486
  HONO-1 :    6 A1 1.0000000
  HONO-0 :    2 B1 1.0000000
  LUNO+0 :    7 A1 0.0029514
  LUNO+1 :    3 B2 0.0017973
  LUNO+2 :    8 A1 0.0000232
  LUNO+3 :    9 A1 0.0000024

Computation Completed

Properties will be evaluated at   0.000000,   0.000000,   0.000000 [a0]

Properties computed using the SCF density matrix

  Nuclear Dipole Moment: [e a0]
     X:    -0.0000      Y:     0.0000      Z:     3.4722

  Electronic Dipole Moment: [e a0]
     X:     0.0000      Y:     0.0000      Z:    -2.6350

  Dipole Moment: [e a0]
     X:    -0.0000      Y:     0.0000      Z:     0.8372     Total:     0.8372

  Dipole Moment: [D]
     X:    -0.0000      Y:     0.0000      Z:     2.1280     Total:     2.1280

*** tstop() called on c1-23.compute.lan at Mon Mar  8 17:31:46 2021
Module time:
	user time   =      46.10 seconds =       0.77 minutes
	system time =       2.56 seconds =       0.04 minutes
	total time  =          5 seconds =       0.08 minutes
Total time:
	user time   =      46.10 seconds =       0.77 minutes
	system time =       2.56 seconds =       0.04 minutes
	total time  =          5 seconds =       0.08 minutes
 MINTS: Wrapper to libmints.
   by Justin Turney

   Calculation information:
      Number of threads:                12
      Number of atoms:                   4
      Number of AO shells:              46
      Number of SO shells:              37
      Number of primitives:             82
      Number of atomic orbitals:       160
      Number of basis functions:       138

      Number of irreps:                  4
      Integral cutoff                 0.00e+00
      Number of functions per irrep: [  54   17   29   38 ]

 OEINTS: Overlap, kinetic, potential, dipole, and quadrupole integrals
         stored in file 35.

      Computing two-electron integrals...done
      Computed 11528580 non-zero two-electron integrals.
        Stored in file 33.

*** tstart() called on c1-23.compute.lan
*** at Mon Mar  8 17:31:49 2021

	Wfn Parameters:
	--------------------
	Wavefunction         = CCSD_T
	Number of irreps     = 4
	Number of MOs        = 138
	Number of active MOs = 136
	AO-Basis             = NONE
	Semicanonical        = false
	Reference            = UHF
	Print Level          = 1

	IRREP	# MOs	# FZDC	# DOCC	# SOCC	# VIRT	# FZVR
	-----	-----	------	------	------	------	------
	 A1	   54	    2	    3	    1	    48	    0
	 A2	   17	    0	    0	    0	    17	    0
	 B1	   29	    0	    1	    1	    27	    0
	 B2	   38	    0	    2	    0	    36	    0
	Transforming integrals...
	IWL integrals will be deleted.
	(OO|OO)...
	Presorting SO-basis two-electron integrals.
	Sorting File: SO Ints (nn|nn) nbuckets = 1
	Transforming the one-electron integrals and constructing Fock matrices
	Starting AA/AB first half-transformation.
	Sorting AA/AB half-transformed integrals.
	Starting BB first half-transformation.
	Sorting BB half-transformed integrals.
	First half integral transformation complete.
	Starting AA second half-transformation.
	Starting AB second half-transformation.
	Starting BB second half-transformation.
	Two-electron integral transformation complete.
	(OO|OV)...
	Starting AA second half-transformation.
	Starting AB second half-transformation.
	Starting BB second half-transformation.
	Two-electron integral transformation complete.
	(OO|VV)...
	Starting AA second half-transformation.
	Starting AB second half-transformation.
	Starting BB second half-transformation.
	Two-electron integral transformation complete.
	(OV|OO)...
	Starting AA/AB first half-transformation.
	Sorting AA/AB half-transformed integrals.
	Starting BB first half-transformation.
	Sorting BB half-transformed integrals.
	First half integral transformation complete.
	Starting AA second half-transformation.
	Starting AB second half-transformation.
	Starting BB second half-transformation.
	Two-electron integral transformation complete.
	(OV|OV)...
	Starting AA second half-transformation.
	Starting AB second half-transformation.
	Starting BB second half-transformation.
	Two-electron integral transformation complete.
	(OV|VV)...
	Starting AA second half-transformation.
	Starting AB second half-transformation.
	Starting BB second half-transformation.
	Two-electron integral transformation complete.
	(VV|OO)...
	Starting AA/AB first half-transformation.
	Sorting AA/AB half-transformed integrals.
	Starting BB first half-transformation.
	Sorting BB half-transformed integrals.
	First half integral transformation complete.
	Starting AA second half-transformation.
	Starting AB second half-transformation.
	Starting BB second half-transformation.
	Two-electron integral transformation complete.
	(VV|OV)...
	Starting AA second half-transformation.
	Starting AB second half-transformation.
	Starting BB second half-transformation.
	Two-electron integral transformation complete.
	(VV|VV)...
	Starting AA second half-transformation.
	Starting AB second half-transformation.
	Starting BB second half-transformation.
	Two-electron integral transformation complete.
	Frozen core energy     =   -126.39639245292214

	Size of irrep 0 of <AB|CD> integrals:      5.040 (MW) /     40.320 (MB)
	Size of irrep 1 of <AB|CD> integrals:      3.197 (MW) /     25.576 (MB)
	Size of irrep 2 of <AB|CD> integrals:      3.640 (MW) /     29.124 (MB)
	Size of irrep 3 of <AB|CD> integrals:      4.783 (MW) /     38.264 (MB)
	Total:                                    16.660 (MW) /    133.283 (MB)

	Size of irrep 0 of <ab|cd> integrals:      5.382 (MW) /     43.059 (MB)
	Size of irrep 1 of <ab|cd> integrals:      3.389 (MW) /     27.114 (MB)
	Size of irrep 2 of <ab|cd> integrals:      3.936 (MW) /     31.490 (MB)
	Size of irrep 3 of <ab|cd> integrals:      5.018 (MW) /     40.141 (MB)
	Total:                                    17.726 (MW) /    141.804 (MB)

	Size of irrep 0 of <Ab|Cd> integrals:     22.024 (MW) /    176.194 (MB)
	Size of irrep 1 of <Ab|Cd> integrals:     13.170 (MW) /    105.357 (MB)
	Size of irrep 2 of <Ab|Cd> integrals:     15.140 (MW) /    121.119 (MB)
	Size of irrep 3 of <Ab|Cd> integrals:     19.598 (MW) /    156.787 (MB)
	Total:                                    69.932 (MW) /    559.457 (MB)

	Size of irrep 0 of <IA|BC> integrals:      1.469 (MW) /     11.748 (MB)
	Size of irrep 1 of <IA|BC> integrals:      0.694 (MW) /      5.550 (MB)
	Size of irrep 2 of <IA|BC> integrals:      0.908 (MW) /      7.266 (MB)
	Size of irrep 3 of <IA|BC> integrals:      1.198 (MW) /      9.588 (MB)
	Total:                                     4.269 (MW) /     34.152 (MB)

	Size of irrep 0 of <ia|bc> integrals:      1.178 (MW) /      9.426 (MB)
	Size of irrep 1 of <ia|bc> integrals:      0.527 (MW) /      4.212 (MB)
	Size of irrep 2 of <ia|bc> integrals:      0.663 (MW) /      5.301 (MB)
	Size of irrep 3 of <ia|bc> integrals:      0.999 (MW) /      7.992 (MB)
	Total:                                     3.366 (MW) /     26.931 (MB)

	Size of irrep 0 of <Ia|Bc> integrals:      1.521 (MW) /     12.164 (MB)
	Size of irrep 1 of <Ia|Bc> integrals:      0.711 (MW) /      5.690 (MB)
	Size of irrep 2 of <Ia|Bc> integrals:      0.949 (MW) /      7.595 (MB)
	Size of irrep 3 of <Ia|Bc> integrals:      1.222 (MW) /      9.775 (MB)
	Total:                                     4.403 (MW) /     35.225 (MB)

	Size of irrep 0 of <iA|bC> integrals:      1.140 (MW) /      9.123 (MB)
	Size of irrep 1 of <iA|bC> integrals:      0.512 (MW) /      4.094 (MB)
	Size of irrep 2 of <iA|bC> integrals:      0.634 (MW) /      5.074 (MB)
	Size of irrep 3 of <iA|bC> integrals:      0.978 (MW) /      7.827 (MB)
	Total:                                     3.265 (MW) /     26.118 (MB)

	Size of irrep 0 of tIjAb amplitudes:       0.084 (MW) /      0.676 (MB)
	Size of irrep 1 of tIjAb amplitudes:       0.022 (MW) /      0.174 (MB)
	Size of irrep 2 of tIjAb amplitudes:       0.039 (MW) /      0.311 (MB)
	Size of irrep 3 of tIjAb amplitudes:       0.062 (MW) /      0.496 (MB)
	Total:                                     0.207 (MW) /      1.657 (MB)

	Nuclear Rep. energy          =     23.88597424692688
	SCF energy                   =   -150.87343396110441
	One-electron energy          =    -85.47928144458376
	Two-electron (AA) energy     =     10.37671056942085
	Two-electron (BB) energy     =      5.47264785641064
	Two-electron (AB) energy     =     21.26690726364153
	Two-electron energy          =     37.11626568947302
	Reference energy             =   -150.87343396110600

*** tstop() called on c1-23.compute.lan at Mon Mar  8 17:32:15 2021
Module time:
	user time   =     110.91 seconds =       1.85 minutes
	system time =      17.32 seconds =       0.29 minutes
	total time  =         26 seconds =       0.43 minutes
Total time:
	user time   =     162.15 seconds =       2.70 minutes
	system time =      20.42 seconds =       0.34 minutes
	total time  =         34 seconds =       0.57 minutes
            **************************
            *                        *
            *        CCENERGY        *
            *                        *
            **************************

    Nuclear Rep. energy (wfn)     =   23.885974246926882
    SCF energy          (wfn)     = -150.873433961104411
    Reference energy    (file100) = -150.873433961106002

    Input parameters:
    -----------------
    Wave function   =     CCSD_T
    Reference wfn   =     UHF
    Brueckner       =     No
    Memory (Mbytes) =     4000.0
    Maxiter         =     50
    R_Convergence   =     1.0e-10
    E_Convergence   =     1.0e-10
    Restart         =     Yes
    DIIS            =     Yes
    AO Basis        =     NONE
    ABCD            =     NEW
    Cache Level     =     2
    Cache Type      =     LRU
    Print Level     =     1
    Num. of threads =     12
    # Amps to Print =     10
    Print MP2 Amps? =     No
    Analyze T2 Amps =     No
    Print Pair Ener =     No
    Local CC        =     No
    SCS-MP2         =     False
    SCSN-MP2        =     False
    SCS-CCSD        =     False

MP2 correlation energy -0.4163547269591463
                Solving CC Amplitude Equations
                ------------------------------
  Iter             Energy              RMS        T1Diag      D1Diag    New D1Diag    D2Diag
  ----     ---------------------    ---------   ----------  ----------  ----------   --------
     0        -0.416354726959146    0.000e+00    0.000000    0.000000    0.000000    0.000000
     1        -0.427120103279974    5.705e-02    0.010598    0.000000    0.000000    0.000000
     2        -0.435224604353514    1.705e-02    0.011093    0.000000    0.000000    0.000000
     3        -0.437380274136914    8.799e-03    0.013023    0.000000    0.000000    0.000000
     4        -0.437253604688756    2.691e-03    0.013436    0.000000    0.000000    0.000000
     5        -0.437244123644192    1.402e-03    0.013633    0.000000    0.000000    0.000000
     6        -0.437273341605079    5.312e-04    0.013660    0.000000    0.000000    0.000000
     7        -0.437276325071358    2.157e-04    0.013654    0.000000    0.000000    0.000000
     8        -0.437277256568429    6.687e-05    0.013650    0.000000    0.000000    0.000000
     9        -0.437277946759355    2.399e-05    0.013649    0.000000    0.000000    0.000000
    10        -0.437277040910657    9.239e-06    0.013649    0.000000    0.000000    0.000000
    11        -0.437277206952750    4.038e-06    0.013649    0.000000    0.000000    0.000000
    12        -0.437277167184221    1.468e-06    0.013649    0.000000    0.000000    0.000000
    13        -0.437277175456503    7.433e-07    0.013649    0.000000    0.000000    0.000000
    14        -0.437277198500822    3.119e-07    0.013649    0.000000    0.000000    0.000000
    15        -0.437277200122752    1.131e-07    0.013649    0.000000    0.000000    0.000000
    16        -0.437277200733573    5.141e-08    0.013649    0.000000    0.000000    0.000000
    17        -0.437277201296062    1.967e-08    0.013649    0.000000    0.000000    0.000000
    18        -0.437277201141192    1.045e-08    0.013649    0.000000    0.000000    0.000000

      * MP2 total energy                      = -151.289788688065158
      * CCSD total energy                     = -151.310711161983505
      * CCSD(T) total energy                     = -151.323015627034522
*** Psi4 exiting successfully. Buy a developer a beer!
