                               Psi4 1.3.2 release

  ==> Input File <==

--------------------------------------------------------------------------
memory 4 GB

molecule  {
0 3
O   -1.506400547086   -0.018463005014    0.000000000000
H   -0.543132061512    0.063275667678    0.000000000000
H   -1.821561320881    0.889479436987    0.000000000000
O    1.655397727816   -0.041569228161    0.000000000000
}
set {
basis aug-cc-pvtz
reference uhf
e_convergence 10
scf_type pk
freeze_core true
}

set ccenergy {
e_convergence 10
r_convergence 10
}

e = energy('ccsd(t)')

print_out('Stephenergy {}'.format(e))

--------------------------------------------------------------------------

    Molecular point group: cs

    Geometry (in Angstrom), charge = 0, multiplicity = 3:

       Center              X                  Y                   Z               Mass
    ------------   -----------------  -----------------  -----------------  -----------------
         O           -1.506400547086    -0.018463005014     0.000000000000    15.994914619570
         H           -0.543132061512     0.063275667678     0.000000000000     1.007825032230
         H           -1.821561320881     0.889479436987     0.000000000000     1.007825032230
         O            1.655397727816    -0.041569228161     0.000000000000    15.994914619570

  Charge       = 0
  Multiplicity = 3
  Basis Set: AUG-CC-PVTZ
    Blend: AUG-CC-PVTZ

    Orbital Energies [Eh]
    ---------------------

    Alpha Occupied:

       1Ap   -20.734827     2Ap   -20.558502     3Ap    -1.444216
       4Ap    -1.341633     5Ap    -0.734762     1App   -0.734543
       6Ap    -0.708826     7Ap    -0.636407     8Ap    -0.574158
       2App   -0.501251

    Alpha Virtual:

       9Ap     0.034479    10Ap     0.053375    11Ap     0.127509
       3App    0.131988    12Ap     0.148075    13Ap     0.160976
      14Ap     0.183756     4App    0.186807    15Ap     0.213564
      16Ap     0.241912    17Ap     0.268907     5App    0.284405
      18Ap     0.298174     6App    0.322644    19Ap     0.369472
      20Ap     0.398767    21Ap     0.460661    22Ap     0.563741
       7App    0.600623    23Ap     0.608492    24Ap     0.637211
      25Ap     0.671677    26Ap     0.713595     8App    0.714391
       9App    0.735206    10App    0.748502    27Ap     0.764795
      28Ap     0.807586    11App    0.825056    29Ap     0.843484
      30Ap     0.874240    12App    0.886656    31Ap     0.925254
      13App    0.944704    32Ap     0.945818    33Ap     0.953756
      14App    0.979933    34Ap     0.982471    35Ap     1.044309
      36Ap     1.128680    15App    1.168729    37Ap     1.168941
      38Ap     1.194037    39Ap     1.271725    16App    1.279400
      40Ap     1.325269    17App    1.528347    41Ap     1.569621
      18App    1.599740    42Ap     1.701255    43Ap     1.816643
      44Ap     1.833832    19App    1.975961    45Ap     1.975969
      46Ap     1.986717    20App    2.011830    47Ap     2.017273
      21App    2.050915    48Ap     2.062810    22App    2.126334
      49Ap     2.164508    50Ap     2.176920    23App    2.215736
      24App    2.299276    51Ap     2.315086    52Ap     2.329760
      53Ap     2.417205    25App    2.452779    54Ap     2.463051
      55Ap     2.522382    26App    2.526854    56Ap     2.635537
      57Ap     2.695324    27App    2.729481    58Ap     2.751021
      59Ap     2.859411    60Ap     2.936442    28App    2.946588
      61Ap     3.699484    62Ap     3.898790    29App    4.036019
      30App    4.059970    63Ap     4.074234    31App    4.175758
      64Ap     4.203668    65Ap     4.270988    32App    4.298677
      66Ap     4.391078    33App    4.391810    34App    4.435590
      67Ap     4.436269    68Ap     4.587306    69Ap     4.780915
      70Ap     4.962404    35App    5.150657    71Ap     5.173437
      72Ap     5.301902    73Ap     5.374955    36App    5.521763
      74Ap     5.687434    75Ap     6.192705    37App    6.310487
      76Ap     6.310519    38App    6.374647    77Ap     6.377411
      39App    6.525861    78Ap     6.526585    79Ap     6.562548
      80Ap     6.641983    40App    6.728427    81Ap     6.812578
      41App    6.818845    82Ap     6.915237    42App    6.935480
      83Ap     6.966147    84Ap     7.051161    43App    7.146684
      44App    7.273735    85Ap     7.319736    45App    7.323236
      86Ap     7.360728    46App    7.443795    87Ap     7.651547
      88Ap     7.940474    89Ap     7.964844    90Ap     8.802571
      91Ap     9.480661    92Ap    16.403517

    Beta Occupied:

       1Ap   -20.656038     2Ap   -20.558649     3Ap    -1.342273
       4Ap    -1.101766     5Ap    -0.707688     6Ap    -0.580629
       7Ap    -0.541956     1App   -0.501308

    Beta Virtual:

       8Ap     0.034348     9Ap     0.047358     2App    0.047955
      10Ap     0.056219    11Ap     0.144426    12Ap     0.151552
       3App    0.160845    13Ap     0.179185    14Ap     0.208904
      15Ap     0.221452     4App    0.226225    16Ap     0.251393
      17Ap     0.270604     5App    0.284675    18Ap     0.300365
       6App    0.326675    19Ap     0.373435    20Ap     0.410056
      21Ap     0.461544    22Ap     0.567128     7App    0.632959
      23Ap     0.636731    24Ap     0.641887    25Ap     0.675319
      26Ap     0.714145     8App    0.727247     9App    0.737254
      10App    0.750269    27Ap     0.784576    28Ap     0.819573
      29Ap     0.852766    11App    0.868082    30Ap     0.920037
      12App    0.940248    31Ap     0.944270    13App    0.949011
      32Ap     0.953992    33Ap     0.971512    34Ap     1.017104
      14App    1.023170    35Ap     1.048242    36Ap     1.157937
      15App    1.172214    37Ap     1.175759    38Ap     1.217821
      39Ap     1.274370    16App    1.290208    40Ap     1.335133
      17App    1.529176    41Ap     1.573853    18App    1.601346
      42Ap     1.727977    43Ap     1.822419    44Ap     1.842949
      45Ap     1.994122    19App    2.014009    46Ap     2.014064
      20App    2.055441    47Ap     2.067501    21App    2.175147
      48Ap     2.178125    22App    2.179927    49Ap     2.204928
      50Ap     2.243477    23App    2.252016    24App    2.301785
      51Ap     2.322615    52Ap     2.349128    53Ap     2.422626
      25App    2.455026    54Ap     2.463826    55Ap     2.529149
      26App    2.535747    56Ap     2.642589    57Ap     2.706738
      27App    2.730782    58Ap     2.759923    59Ap     2.862280
      60Ap     2.939960    28App    2.947265    61Ap     3.700064
      62Ap     3.901741    29App    4.036818    30App    4.146360
      63Ap     4.182937    64Ap     4.241427    31App    4.259252
      65Ap     4.291086    32App    4.298838    33App    4.391930
      66Ap     4.401917    34App    4.436753    67Ap     4.472860
      68Ap     4.588781    69Ap     4.782236    70Ap     4.964764
      35App    5.150650    71Ap     5.173946    72Ap     5.302161
      73Ap     5.376133    36App    5.521858    74Ap     5.687956
      75Ap     6.193430    37App    6.419411    76Ap     6.419419
      38App    6.449907    77Ap     6.452660    78Ap     6.534827
      39App    6.580268    79Ap     6.610446    80Ap     6.687350
      40App    6.733398    81Ap     6.916867    41App    7.004528
      82Ap     7.005573    42App    7.043794    83Ap     7.071838
      84Ap     7.131037    43App    7.149328    44App    7.274169
      85Ap     7.320003    45App    7.323994    86Ap     7.361246
      46App    7.444246    87Ap     7.652591    88Ap     7.940947
      89Ap     7.965217    90Ap     8.804801    91Ap     9.555249
      92Ap    16.404000

    Final Occupation by Irrep:
             Ap   App
    DOCC [     7,    1 ]
    SOCC [     1,    1 ]

  @UHF Final Energy:  -150.87421297292514

   => Energetics <=

    Nuclear Repulsion Energy =             22.9422248139169014
    One-Electron Energy =                -253.6734469314928333
    Two-Electron Energy =                  79.8570091446507888
    Total Energy =                       -150.8742129729251360

  UHF NO Occupations:
  HONO-2 :    7 Ap 1.9970269
  HONO-1 :    8 Ap 1.0000000
  HONO-0 :    2App 1.0000000
  LUNO+0 :    9 Ap 0.0029731
  LUNO+1 :   10 Ap 0.0017126
  LUNO+2 :   11 Ap 0.0000024
  LUNO+3 :   12 Ap 0.0000021

Computation Completed

Properties will be evaluated at   0.000000,   0.000000,   0.000000 [a0]

Properties computed using the SCF density matrix

  Nuclear Dipole Moment: [e a0]
     X:    -2.2161      Y:     0.8929      Z:     0.0000

  Electronic Dipole Moment: [e a0]
     X:     2.7431      Y:    -0.2478      Z:     0.0000

  Dipole Moment: [e a0]
     X:     0.5270      Y:     0.6451      Z:     0.0000     Total:     0.8330

  Dipole Moment: [D]
     X:     1.3395      Y:     1.6398      Z:     0.0000     Total:     2.1174

*** tstop() called on c5-7.compute.lan at Tue Mar  9 15:19:08 2021
Module time:
	user time   =      58.41 seconds =       0.97 minutes
	system time =       0.94 seconds =       0.02 minutes
	total time  =          7 seconds =       0.12 minutes
Total time:
	user time   =      58.41 seconds =       0.97 minutes
	system time =       0.94 seconds =       0.02 minutes
	total time  =          7 seconds =       0.12 minutes
 MINTS: Wrapper to libmints.
   by Justin Turney

   Calculation information:
      Number of threads:                12
      Number of atoms:                   4
      Number of AO shells:              46
      Number of SO shells:              46
      Number of primitives:             82
      Number of atomic orbitals:       160
      Number of basis functions:       138

      Number of irreps:                  2
      Integral cutoff                 0.00e+00
      Number of functions per irrep: [  92   46 ]

 OEINTS: Overlap, kinetic, potential, dipole, and quadrupole integrals
         stored in file 35.

      Computing two-electron integrals...done
      Computed 22926109 non-zero two-electron integrals.
        Stored in file 33.

*** tstart() called on c5-7.compute.lan
*** at Tue Mar  9 15:19:11 2021

	Wfn Parameters:
	--------------------
	Wavefunction         = CCSD_T
	Number of irreps     = 2
	Number of MOs        = 138
	Number of active MOs = 136
	AO-Basis             = NONE
	Semicanonical        = false
	Reference            = UHF
	Print Level          = 1

	IRREP	# MOs	# FZDC	# DOCC	# SOCC	# VIRT	# FZVR
	-----	-----	------	------	------	------	------
	 Ap	   92	    2	    5	    1	    84	    0
	 App	   46	    0	    1	    1	    44	    0
	Transforming integrals...
	IWL integrals will be deleted.
	(OO|OO)...
	Presorting SO-basis two-electron integrals.
	Sorting File: SO Ints (nn|nn) nbuckets = 1
	Transforming the one-electron integrals and constructing Fock matrices
	Starting AA/AB first half-transformation.
	Sorting AA/AB half-transformed integrals.
	Starting BB first half-transformation.
	Sorting BB half-transformed integrals.
	First half integral transformation complete.
	Starting AA second half-transformation.
	Starting AB second half-transformation.
	Starting BB second half-transformation.
	Two-electron integral transformation complete.
	(OO|OV)...
	Starting AA second half-transformation.
	Starting AB second half-transformation.
	Starting BB second half-transformation.
	Two-electron integral transformation complete.
	(OO|VV)...
	Starting AA second half-transformation.
	Starting AB second half-transformation.
	Starting BB second half-transformation.
	Two-electron integral transformation complete.
	(OV|OO)...
	Starting AA/AB first half-transformation.
	Sorting AA/AB half-transformed integrals.
	Starting BB first half-transformation.
	Sorting BB half-transformed integrals.
	First half integral transformation complete.
	Starting AA second half-transformation.
	Starting AB second half-transformation.
	Starting BB second half-transformation.
	Two-electron integral transformation complete.
	(OV|OV)...
	Starting AA second half-transformation.
	Starting AB second half-transformation.
	Starting BB second half-transformation.
	Two-electron integral transformation complete.
	(OV|VV)...
	Starting AA second half-transformation.
	Starting AB second half-transformation.
	Starting BB second half-transformation.
	Two-electron integral transformation complete.
	(VV|OO)...
	Starting AA/AB first half-transformation.
	Sorting AA/AB half-transformed integrals.
	Starting BB first half-transformation.
	Sorting BB half-transformed integrals.
	First half integral transformation complete.
	Starting AA second half-transformation.
	Starting AB second half-transformation.
	Starting BB second half-transformation.
	Two-electron integral transformation complete.
	(VV|OV)...
	Starting AA second half-transformation.
	Starting AB second half-transformation.
	Starting BB second half-transformation.
	Two-electron integral transformation complete.
	(VV|VV)...
	Starting AA second half-transformation.
	Starting AB second half-transformation.
	Starting BB second half-transformation.
	Two-electron integral transformation complete.
	Frozen core energy     =   -125.86795028024692

	Size of irrep 0 of <AB|CD> integrals:     19.643 (MW) /    157.141 (MB)
	Size of irrep 1 of <AB|CD> integrals:     13.660 (MW) /    109.283 (MB)
	Total:                                    33.303 (MW) /    266.424 (MB)

	Size of irrep 0 of <ab|cd> integrals:     20.794 (MW) /    166.349 (MB)
	Size of irrep 1 of <ab|cd> integrals:     14.631 (MW) /    117.045 (MB)
	Total:                                    35.424 (MW) /    283.394 (MB)

	Size of irrep 0 of <Ab|Cd> integrals:     83.174 (MW) /    665.395 (MB)
	Size of irrep 1 of <Ab|Cd> integrals:     56.550 (MW) /    452.403 (MB)
	Total:                                   139.725 (MW) /   1117.798 (MB)

	Size of irrep 0 of <IA|BC> integrals:      5.323 (MW) /     42.586 (MB)
	Size of irrep 1 of <IA|BC> integrals:      3.193 (MW) /     25.547 (MB)
	Total:                                     8.517 (MW) /     68.133 (MB)

	Size of irrep 0 of <ia|bc> integrals:      4.348 (MW) /     34.780 (MB)
	Size of irrep 1 of <ia|bc> integrals:      2.372 (MW) /     18.972 (MB)
	Total:                                     6.719 (MW) /     53.752 (MB)

	Size of irrep 0 of <Ia|Bc> integrals:      5.472 (MW) /     43.776 (MB)
	Size of irrep 1 of <Ia|Bc> integrals:      3.309 (MW) /     26.470 (MB)
	Total:                                     8.781 (MW) /     70.246 (MB)

	Size of irrep 0 of <iA|bC> integrals:      4.232 (MW) /     33.853 (MB)
	Size of irrep 1 of <iA|bC> integrals:      2.286 (MW) /     18.289 (MB)
	Total:                                     6.518 (MW) /     52.142 (MB)

	Size of irrep 0 of tIjAb amplitudes:       0.292 (MW) /      2.335 (MB)
	Size of irrep 1 of tIjAb amplitudes:       0.120 (MW) /      0.963 (MB)
	Total:                                     0.412 (MW) /      3.297 (MB)

	Nuclear Rep. energy          =     22.94222481391690
	SCF energy                   =   -150.87421297292514
	One-electron energy          =    -84.44556464709376
	Two-electron (AA) energy     =     10.14378708127973
	Two-electron (BB) energy     =      5.39630714606535
	Two-electron (AB) energy     =     20.95698291315230
	Two-electron energy          =     36.49707714049738
	Reference energy             =   -150.87421297292639

*** tstop() called on c5-7.compute.lan at Tue Mar  9 15:20:00 2021
Module time:
	user time   =     235.77 seconds =       3.93 minutes
	system time =      18.42 seconds =       0.31 minutes
	total time  =         49 seconds =       0.82 minutes
Total time:
	user time   =     300.30 seconds =       5.00 minutes
	system time =      19.92 seconds =       0.33 minutes
	total time  =         59 seconds =       0.98 minutes
            **************************
            *                        *
            *        CCENERGY        *
            *                        *
            **************************

    Nuclear Rep. energy (wfn)     =   22.942224813916901
    SCF energy          (wfn)     = -150.874212972925136
    Reference energy    (file100) = -150.874212972926387

    Input parameters:
    -----------------
    Wave function   =     CCSD_T
    Reference wfn   =     UHF
    Brueckner       =     No
    Memory (Mbytes) =     4000.0
    Maxiter         =     50
    R_Convergence   =     1.0e-10
    E_Convergence   =     1.0e-10
    Restart         =     Yes
    DIIS            =     Yes
    AO Basis        =     NONE
    ABCD            =     NEW
    Cache Level     =     2
    Cache Type      =     LRU
    Print Level     =     1
    Num. of threads =     12
    # Amps to Print =     10
    Print MP2 Amps? =     No
    Analyze T2 Amps =     No
    Print Pair Ener =     No
    Local CC        =     No
    SCS-MP2         =     False
    SCSN-MP2        =     False
    SCS-CCSD        =     False

MP2 correlation energy -0.4168221463797518
                Solving CC Amplitude Equations
                ------------------------------
  Iter             Energy              RMS        T1Diag      D1Diag    New D1Diag    D2Diag
  ----     ---------------------    ---------   ----------  ----------  ----------   --------
     0        -0.416822146379752    0.000e+00    0.000000    0.000000    0.000000    0.000000
     1        -0.427491994431175    5.701e-02    0.010581    0.000000    0.000000    0.000000
     2        -0.435602518240803    1.693e-02    0.011062    0.000000    0.000000    0.000000
     3        -0.437728884138825    8.608e-03    0.012943    0.000000    0.000000    0.000000
     4        -0.437603419593128    2.541e-03    0.013314    0.000000    0.000000    0.000000
     5        -0.437588164894445    1.335e-03    0.013473    0.000000    0.000000    0.000000
     6        -0.437615620083846    5.193e-04    0.013497    0.000000    0.000000    0.000000
     7        -0.437620436700405    2.730e-04    0.013493    0.000000    0.000000    0.000000
     8        -0.437621001696285    1.009e-04    0.013488    0.000000    0.000000    0.000000
     9        -0.437622428172858    7.358e-05    0.013490    0.000000    0.000000    0.000000
    10        -0.437620798403337    6.179e-05    0.013491    0.000000    0.000000    0.000000
    11        -0.437620952285043    5.828e-05    0.013492    0.000000    0.000000    0.000000
    12        -0.437620720189146    5.641e-05    0.013494    0.000000    0.000000    0.000000
    13        -0.437620721290796    5.538e-05    0.013497    0.000000    0.000000    0.000000
    14        -0.437621764852847    5.389e-05    0.013509    0.000000    0.000000    0.000000
    15        -0.437622127609782    4.860e-05    0.013566    0.000000    0.000000    0.000000
    16        -0.437621884918074    3.369e-05    0.013691    0.000000    0.000000    0.000000
    17        -0.437621554293517    1.658e-05    0.013760    0.000000    0.000000    0.000000
    18        -0.437621405395982    7.793e-06    0.013778    0.000000    0.000000    0.000000
    19        -0.437621654336822    3.451e-06    0.013783    0.000000    0.000000    0.000000
    20        -0.437621770618903    1.538e-06    0.013783    0.000000    0.000000    0.000000
    21        -0.437621778480243    6.211e-07    0.013784    0.000000    0.000000    0.000000
    22        -0.437621780081859    2.961e-07    0.013784    0.000000    0.000000    0.000000
    23        -0.437621779081521    1.534e-07    0.013784    0.000000    0.000000    0.000000
    24        -0.437621778138972    6.206e-08    0.013784    0.000000    0.000000    0.000000
    25        -0.437621779107066    3.225e-08    0.013784    0.000000    0.000000    0.000000
    26        -0.437621779576198    2.410e-08    0.013784    0.000000    0.000000    0.000000
    27        -0.437621779730326    2.244e-08    0.013784    0.000000    0.000000    0.000000
    28        -0.437621779693775    2.178e-08    0.013784    0.000000    0.000000    0.000000
    29        -0.437621779564078    2.129e-08    0.013784    0.000000    0.000000    0.000000
    30        -0.437621779325205    2.063e-08    0.013784    0.000000    0.000000    0.000000
    31        -0.437621779385280    1.863e-08    0.013784    0.000000    0.000000    0.000000
    32        -0.437621779704934    1.157e-08    0.013784    0.000000    0.000000    0.000000
    33        -0.437621779827368    5.297e-09    0.013784    0.000000    0.000000    0.000000
    34        -0.437621779900967    2.188e-09    0.013784    0.000000    0.000000    0.000000
    35        -0.437621779909614    8.188e-10    0.013784    0.000000    0.000000    0.000000
    36        -0.437621779910540    3.377e-10    0.013784    0.000000    0.000000    0.000000

      * MP2 total energy                      = -151.291035119306144
      * CCSD total energy                     = -151.311834752836972
      * CCSD(T) total energy                     = -151.324221392825450
*** Psi4 exiting successfully. Buy a developer a beer!
