                               Psi4 1.3.2 release

  ==> Input File <==

--------------------------------------------------------------------------
memory 4 GB

molecule  {
0 3
O   -1.519300073964   -0.028207882418    0.000000000000
H   -0.557411625910   -0.003532758201    0.000000000000
H   -1.781143645178    0.896905132408    0.000000000000
O    1.666650316057   -0.028082698885    0.000000000000
}
set {
basis aug-cc-pvtz
reference uhf
e_convergence 10
scf_type pk
freeze_core true
}

set ccenergy {
e_convergence 10
r_convergence 10
}

e = energy('ccsd(t)')

print_out('Stephenergy {}'.format(e))

--------------------------------------------------------------------------

    Molecular point group: cs

    Geometry (in Angstrom), charge = 0, multiplicity = 3:

       Center              X                  Y                   Z               Mass
    ------------   -----------------  -----------------  -----------------  -----------------
         O           -1.519300073964    -0.028207882418     0.000000000000    15.994914619570
         H           -0.557411625910    -0.003532758201     0.000000000000     1.007825032230
         H           -1.781143645178     0.896905132408     0.000000000000     1.007825032230
         O            1.666650316057    -0.028082698885     0.000000000000    15.994914619570

  Charge       = 0
  Multiplicity = 3
  Basis Set: AUG-CC-PVTZ
    Blend: AUG-CC-PVTZ

    Orbital Energies [Eh]
    ---------------------

    Alpha Occupied:

       1Ap   -20.734913     2Ap   -20.558399     3Ap    -1.444241
       4Ap    -1.342856     5Ap    -0.734776     1App   -0.734624
       6Ap    -0.709826     7Ap    -0.636858     8Ap    -0.574652
       2App   -0.501616

    Alpha Virtual:

       9Ap     0.034577    10Ap     0.053278    11Ap     0.127515
       3App    0.131560    12Ap     0.148065    13Ap     0.161201
      14Ap     0.183443     4App    0.186301    15Ap     0.211722
      16Ap     0.241726    17Ap     0.271755     5App    0.282616
      18Ap     0.293762     6App    0.323421    19Ap     0.372363
      20Ap     0.393198    21Ap     0.460118    22Ap     0.559331
       7App    0.600112    23Ap     0.608711    24Ap     0.643461
      25Ap     0.668773    26Ap     0.712365     8App    0.713164
       9App    0.734718    10App    0.747212    27Ap     0.766007
      28Ap     0.798132    11App    0.824808    29Ap     0.851887
      30Ap     0.865749    12App    0.883532    31Ap     0.923377
      13App    0.942393    32Ap     0.944432    33Ap     0.956574
      14App    0.983434    34Ap     0.986291    35Ap     1.043431
      36Ap     1.128149    37Ap     1.168878    15App    1.177441
      38Ap     1.194391    16App    1.261850    39Ap     1.272426
      40Ap     1.324595    17App    1.528568    41Ap     1.556776
      18App    1.601289    42Ap     1.690545    43Ap     1.819111
      44Ap     1.826828    19App    1.975636    45Ap     1.975670
      46Ap     1.995417    20App    2.011251    47Ap     2.017759
      21App    2.048696    48Ap     2.060929    22App    2.122964
      49Ap     2.164899    50Ap     2.166381    23App    2.211709
      24App    2.294945    51Ap     2.302683    52Ap     2.329347
      53Ap     2.415171    25App    2.449755    54Ap     2.460867
      26App    2.524735    55Ap     2.536027    56Ap     2.632818
      57Ap     2.672681    27App    2.728948    58Ap     2.751181
      59Ap     2.865610    60Ap     2.943064    28App    2.946249
      61Ap     3.699080    62Ap     3.895494    29App    4.035896
      30App    4.058603    63Ap     4.076236    31App    4.173309
      64Ap     4.201872    65Ap     4.274110    32App    4.299757
      66Ap     4.377865    33App    4.393519    67Ap     4.436756
      34App    4.440526    68Ap     4.578147    69Ap     4.783213
      70Ap     4.963033    35App    5.156532    71Ap     5.181550
      72Ap     5.307517    73Ap     5.376536    36App    5.528097
      74Ap     5.691967    75Ap     6.197863    37App    6.310266
      76Ap     6.310308    38App    6.372976    77Ap     6.375758
      39App    6.520931    78Ap     6.526668    79Ap     6.557125
      80Ap     6.635782    40App    6.725020    81Ap     6.812374
      41App    6.818541    82Ap     6.914445    42App    6.934032
      83Ap     6.967050    84Ap     7.049736    43App    7.147881
      44App    7.275271    85Ap     7.324182    45App    7.328362
      86Ap     7.360242    46App    7.442117    87Ap     7.660328
      88Ap     7.949046    89Ap     7.966766    90Ap     8.812849
      91Ap     9.399769    92Ap    16.544951

    Beta Occupied:

       1Ap   -20.656134     2Ap   -20.558539     3Ap    -1.343461
       4Ap    -1.101791     5Ap    -0.708828     6Ap    -0.581147
       7Ap    -0.542144     1App   -0.501670

    Beta Virtual:

       8Ap     0.034233     9Ap     0.046210     2App    0.047689
      10Ap     0.057487    11Ap     0.144215    12Ap     0.151022
       3App    0.160429    13Ap     0.179793    14Ap     0.210107
      15Ap     0.218151     4App    0.225956    16Ap     0.251360
      17Ap     0.273739     5App    0.282947    18Ap     0.295995
       6App    0.327176    19Ap     0.376189    20Ap     0.403969
      21Ap     0.460861    22Ap     0.562309     7App    0.632423
      23Ap     0.639009    24Ap     0.646498    25Ap     0.671814
      26Ap     0.713034     8App    0.726959     9App    0.735884
      10App    0.748660    27Ap     0.784967    28Ap     0.810656
      29Ap     0.856796    11App    0.867617    30Ap     0.918633
      12App    0.936295    31Ap     0.943911    13App    0.949566
      32Ap     0.954286    33Ap     0.974059    34Ap     1.016037
      14App    1.024822    35Ap     1.047556    36Ap     1.154908
      37Ap     1.176690    15App    1.180752    38Ap     1.219283
      16App    1.272952    39Ap     1.274640    40Ap     1.335325
      17App    1.529396    41Ap     1.562437    18App    1.602915
      42Ap     1.717477    43Ap     1.824290    44Ap     1.834417
      45Ap     2.002798    19App    2.013736    46Ap     2.013922
      20App    2.053278    47Ap     2.065993    21App    2.170856
      48Ap     2.179513    22App    2.179664    49Ap     2.204533
      50Ap     2.228957    23App    2.249218    24App    2.296897
      51Ap     2.317898    52Ap     2.343975    53Ap     2.422371
      25App    2.452187    54Ap     2.461689    26App    2.533366
      55Ap     2.543229    56Ap     2.638962    57Ap     2.683833
      27App    2.730117    58Ap     2.758216    59Ap     2.870177
      60Ap     2.945889    28App    2.946931    61Ap     3.699534
      62Ap     3.898343    29App    4.036127    30App    4.146597
      63Ap     4.180940    64Ap     4.244143    31App    4.255241
      65Ap     4.295744    32App    4.300092    66Ap     4.392354
      33App    4.393701    34App    4.442043    67Ap     4.468131
      68Ap     4.579140    69Ap     4.784570    70Ap     4.965320
      35App    5.156518    71Ap     5.182070    72Ap     5.307738
      73Ap     5.377624    36App    5.528186    74Ap     5.692609
      75Ap     6.198324    37App    6.419223    76Ap     6.419248
      38App    6.448354    77Ap     6.451207    78Ap     6.533002
      39App    6.575840    79Ap     6.606883    80Ap     6.681856
      40App    6.729393    81Ap     6.916640    41App    7.004563
      82Ap     7.005586    42App    7.042354    83Ap     7.071578
      84Ap     7.129989    43App    7.150140    44App    7.275700
      85Ap     7.324319    45App    7.329226    86Ap     7.360739
      46App    7.442558    87Ap     7.661620    88Ap     7.949450
      89Ap     7.966910    90Ap     8.815286    91Ap     9.474315
      92Ap    16.545515

    Final Occupation by Irrep:
             Ap   App
    DOCC [     7,    1 ]
    SOCC [     1,    1 ]

  @UHF Final Energy:  -150.87442835107430

   => Energetics <=

    Nuclear Repulsion Energy =             22.8706285670036493
    One-Electron Energy =                -253.5236401276194442
    Two-Electron Energy =                  79.7785832095414804
    Total Energy =                       -150.8744283510743003

  UHF NO Occupations:
  HONO-2 :    7 Ap 1.9970293
  HONO-1 :    8 Ap 1.0000000
  HONO-0 :    2App 1.0000000
  LUNO+0 :    9 Ap 0.0029707
  LUNO+1 :   10 Ap 0.0017121
  LUNO+2 :   11 Ap 0.0000024
  LUNO+3 :   12 Ap 0.0000019

Computation Completed

Properties will be evaluated at   0.000000,   0.000000,   0.000000 [a0]

Properties computed using the SCF density matrix

  Nuclear Dipole Moment: [e a0]
     X:    -2.1916      Y:     0.8372      Z:     0.0000

  Electronic Dipole Moment: [e a0]
     X:     2.7517      Y:    -0.2166      Z:     0.0000

  Dipole Moment: [e a0]
     X:     0.5601      Y:     0.6207      Z:     0.0000     Total:     0.8360

  Dipole Moment: [D]
     X:     1.4237      Y:     1.5776      Z:     0.0000     Total:     2.1250

*** tstop() called on c2-19.compute.lan at Tue Mar  9 15:13:36 2021
Module time:
	user time   =      53.68 seconds =       0.89 minutes
	system time =       2.32 seconds =       0.04 minutes
	total time  =          6 seconds =       0.10 minutes
Total time:
	user time   =      53.68 seconds =       0.89 minutes
	system time =       2.32 seconds =       0.04 minutes
	total time  =          6 seconds =       0.10 minutes
 MINTS: Wrapper to libmints.
   by Justin Turney

   Calculation information:
      Number of threads:                12
      Number of atoms:                   4
      Number of AO shells:              46
      Number of SO shells:              46
      Number of primitives:             82
      Number of atomic orbitals:       160
      Number of basis functions:       138

      Number of irreps:                  2
      Integral cutoff                 0.00e+00
      Number of functions per irrep: [  92   46 ]

 OEINTS: Overlap, kinetic, potential, dipole, and quadrupole integrals
         stored in file 35.

      Computing two-electron integrals...done
      Computed 22929583 non-zero two-electron integrals.
        Stored in file 33.

*** tstart() called on c2-19.compute.lan
*** at Tue Mar  9 15:13:40 2021

	Wfn Parameters:
	--------------------
	Wavefunction         = CCSD_T
	Number of irreps     = 2
	Number of MOs        = 138
	Number of active MOs = 136
	AO-Basis             = NONE
	Semicanonical        = false
	Reference            = UHF
	Print Level          = 1

	IRREP	# MOs	# FZDC	# DOCC	# SOCC	# VIRT	# FZVR
	-----	-----	------	------	------	------	------
	 Ap	   92	    2	    5	    1	    84	    0
	 App	   46	    0	    1	    1	    44	    0
	Transforming integrals...
	IWL integrals will be deleted.
	(OO|OO)...
	Presorting SO-basis two-electron integrals.
	Sorting File: SO Ints (nn|nn) nbuckets = 1
	Transforming the one-electron integrals and constructing Fock matrices
	Starting AA/AB first half-transformation.
	Sorting AA/AB half-transformed integrals.
	Starting BB first half-transformation.
	Sorting BB half-transformed integrals.
	First half integral transformation complete.
	Starting AA second half-transformation.
	Starting AB second half-transformation.
	Starting BB second half-transformation.
	Two-electron integral transformation complete.
	(OO|OV)...
	Starting AA second half-transformation.
	Starting AB second half-transformation.
	Starting BB second half-transformation.
	Two-electron integral transformation complete.
	(OO|VV)...
	Starting AA second half-transformation.
	Starting AB second half-transformation.
	Starting BB second half-transformation.
	Two-electron integral transformation complete.
	(OV|OO)...
	Starting AA/AB first half-transformation.
	Sorting AA/AB half-transformed integrals.
	Starting BB first half-transformation.
	Sorting BB half-transformed integrals.
	First half integral transformation complete.
	Starting AA second half-transformation.
	Starting AB second half-transformation.
	Starting BB second half-transformation.
	Two-electron integral transformation complete.
	(OV|OV)...
	Starting AA second half-transformation.
	Starting AB second half-transformation.
	Starting BB second half-transformation.
	Two-electron integral transformation complete.
	(OV|VV)...
	Starting AA second half-transformation.
	Starting AB second half-transformation.
	Starting BB second half-transformation.
	Two-electron integral transformation complete.
	(VV|OO)...
	Starting AA/AB first half-transformation.
	Sorting AA/AB half-transformed integrals.
	Starting BB first half-transformation.
	Sorting BB half-transformed integrals.
	First half integral transformation complete.
	Starting AA second half-transformation.
	Starting AB second half-transformation.
	Starting BB second half-transformation.
	Two-electron integral transformation complete.
	(VV|OV)...
	Starting AA second half-transformation.
	Starting AB second half-transformation.
	Starting BB second half-transformation.
	Two-electron integral transformation complete.
	(VV|VV)...
	Starting AA second half-transformation.
	Starting AB second half-transformation.
	Starting BB second half-transformation.
	Two-electron integral transformation complete.
	Frozen core energy     =   -125.83471717395993

	Size of irrep 0 of <AB|CD> integrals:     19.643 (MW) /    157.141 (MB)
	Size of irrep 1 of <AB|CD> integrals:     13.660 (MW) /    109.283 (MB)
	Total:                                    33.303 (MW) /    266.424 (MB)

	Size of irrep 0 of <ab|cd> integrals:     20.794 (MW) /    166.349 (MB)
	Size of irrep 1 of <ab|cd> integrals:     14.631 (MW) /    117.045 (MB)
	Total:                                    35.424 (MW) /    283.394 (MB)

	Size of irrep 0 of <Ab|Cd> integrals:     83.174 (MW) /    665.395 (MB)
	Size of irrep 1 of <Ab|Cd> integrals:     56.550 (MW) /    452.403 (MB)
	Total:                                   139.725 (MW) /   1117.798 (MB)

	Size of irrep 0 of <IA|BC> integrals:      5.323 (MW) /     42.586 (MB)
	Size of irrep 1 of <IA|BC> integrals:      3.193 (MW) /     25.547 (MB)
	Total:                                     8.517 (MW) /     68.133 (MB)

	Size of irrep 0 of <ia|bc> integrals:      4.348 (MW) /     34.780 (MB)
	Size of irrep 1 of <ia|bc> integrals:      2.372 (MW) /     18.972 (MB)
	Total:                                     6.719 (MW) /     53.752 (MB)

	Size of irrep 0 of <Ia|Bc> integrals:      5.472 (MW) /     43.776 (MB)
	Size of irrep 1 of <Ia|Bc> integrals:      3.309 (MW) /     26.470 (MB)
	Total:                                     8.781 (MW) /     70.246 (MB)

	Size of irrep 0 of <iA|bC> integrals:      4.232 (MW) /     33.853 (MB)
	Size of irrep 1 of <iA|bC> integrals:      2.286 (MW) /     18.289 (MB)
	Total:                                     6.518 (MW) /     52.142 (MB)

	Size of irrep 0 of tIjAb amplitudes:       0.292 (MW) /      2.335 (MB)
	Size of irrep 1 of tIjAb amplitudes:       0.120 (MW) /      0.963 (MB)
	Total:                                     0.412 (MW) /      3.297 (MB)

	Nuclear Rep. energy          =     22.87062856700365
	SCF energy                   =   -150.87442835107430
	One-electron energy          =    -84.36218906719469
	Two-electron (AA) energy     =     10.12754973156005
	Two-electron (BB) energy     =      5.38889936515925
	Two-electron (AB) energy     =     20.93540022635548
	Two-electron energy          =     36.45184932307478
	Reference energy             =   -150.87442835107618

*** tstop() called on c2-19.compute.lan at Tue Mar  9 15:14:23 2021
Module time:
	user time   =     243.14 seconds =       4.05 minutes
	system time =      20.17 seconds =       0.34 minutes
	total time  =         43 seconds =       0.72 minutes
Total time:
	user time   =     304.17 seconds =       5.07 minutes
	system time =      23.38 seconds =       0.39 minutes
	total time  =         53 seconds =       0.88 minutes
            **************************
            *                        *
            *        CCENERGY        *
            *                        *
            **************************

    Nuclear Rep. energy (wfn)     =   22.870628567003649
    SCF energy          (wfn)     = -150.874428351074300
    Reference energy    (file100) = -150.874428351076176

    Input parameters:
    -----------------
    Wave function   =     CCSD_T
    Reference wfn   =     UHF
    Brueckner       =     No
    Memory (Mbytes) =     4000.0
    Maxiter         =     50
    R_Convergence   =     1.0e-10
    E_Convergence   =     1.0e-10
    Restart         =     Yes
    DIIS            =     Yes
    AO Basis        =     NONE
    ABCD            =     NEW
    Cache Level     =     2
    Cache Type      =     LRU
    Print Level     =     1
    Num. of threads =     12
    # Amps to Print =     10
    Print MP2 Amps? =     No
    Analyze T2 Amps =     No
    Print Pair Ener =     No
    Local CC        =     No
    SCS-MP2         =     False
    SCSN-MP2        =     False
    SCS-CCSD        =     False

MP2 correlation energy -0.4165743083245538
                Solving CC Amplitude Equations
                ------------------------------
  Iter             Energy              RMS        T1Diag      D1Diag    New D1Diag    D2Diag
  ----     ---------------------    ---------   ----------  ----------  ----------   --------
     0        -0.416574308324554    0.000e+00    0.000000    0.000000    0.000000    0.000000
     1        -0.427310262883441    5.683e-02    0.010538    0.000000    0.000000    0.000000
     2        -0.435400810691659    1.687e-02    0.011026    0.000000    0.000000    0.000000
     3        -0.437515493864173    8.567e-03    0.012896    0.000000    0.000000    0.000000
     4        -0.437390384356875    2.534e-03    0.013263    0.000000    0.000000    0.000000
     5        -0.437375312612987    1.327e-03    0.013421    0.000000    0.000000    0.000000
     6        -0.437402624989894    5.162e-04    0.013444    0.000000    0.000000    0.000000
     7        -0.437407436102384    2.678e-04    0.013439    0.000000    0.000000    0.000000
     8        -0.437408001267150    9.683e-05    0.013434    0.000000    0.000000    0.000000
     9        -0.437409405646307    6.953e-05    0.013435    0.000000    0.000000    0.000000
    10        -0.437407847096512    5.816e-05    0.013436    0.000000    0.000000    0.000000
    11        -0.437407977132225    5.490e-05    0.013437    0.000000    0.000000    0.000000
    12        -0.437407776460065    5.317e-05    0.013439    0.000000    0.000000    0.000000
    13        -0.437407764221238    5.222e-05    0.013441    0.000000    0.000000    0.000000
    14        -0.437408686613653    5.092e-05    0.013451    0.000000    0.000000    0.000000
    15        -0.437409023028002    4.649e-05    0.013498    0.000000    0.000000    0.000000
    16        -0.437408792999793    3.350e-05    0.013617    0.000000    0.000000    0.000000
    17        -0.437408495368008    1.698e-05    0.013689    0.000000    0.000000    0.000000
    18        -0.437408349095146    7.980e-06    0.013709    0.000000    0.000000    0.000000
    19        -0.437408595575634    3.513e-06    0.013715    0.000000    0.000000    0.000000
    20        -0.437408713630582    1.552e-06    0.013716    0.000000    0.000000    0.000000
    21        -0.437408720520220    6.195e-07    0.013716    0.000000    0.000000    0.000000
    22        -0.437408721599411    2.830e-07    0.013716    0.000000    0.000000    0.000000
    23        -0.437408720878637    1.428e-07    0.013716    0.000000    0.000000    0.000000
    24        -0.437408720073567    5.520e-08    0.013716    0.000000    0.000000    0.000000
    25        -0.437408720977166    2.747e-08    0.013716    0.000000    0.000000    0.000000
    26        -0.437408721414658    1.933e-08    0.013716    0.000000    0.000000    0.000000
    27        -0.437408721548035    1.764e-08    0.013716    0.000000    0.000000    0.000000
    28        -0.437408721525436    1.703e-08    0.013716    0.000000    0.000000    0.000000
    29        -0.437408721431172    1.662e-08    0.013716    0.000000    0.000000    0.000000
    30        -0.437408721243148    1.611e-08    0.013716    0.000000    0.000000    0.000000
    31        -0.437408721267261    1.459e-08    0.013716    0.000000    0.000000    0.000000
    32        -0.437408721517913    9.396e-09    0.013716    0.000000    0.000000    0.000000
    33        -0.437408721614190    4.375e-09    0.013716    0.000000    0.000000    0.000000
    34        -0.437408721674860    1.855e-09    0.013716    0.000000    0.000000    0.000000
    35        -0.437408721682553    7.244e-10    0.013716    0.000000    0.000000    0.000000
    36        -0.437408721682020    2.915e-10    0.013716    0.000000    0.000000    0.000000

      * MP2 total energy                      = -151.291002659400732
      * CCSD total energy                     = -151.311837072757413
      * CCSD(T) total energy                     = -151.324190926765539
*** Psi4 exiting successfully. Buy a developer a beer!
