                               Psi4 1.3.2 release

  ==> Input File <==

--------------------------------------------------------------------------
memory 4 GB

molecule  {
0 3
O    0.000000000000    0.000000000000   -1.442928669299
H    0.000000000000   -0.729955010400   -0.824386789781
H   -0.000000000000    0.729955010400   -0.824386789781
O    0.000000000000    0.000000000000    1.546816393960
}
set {
basis aug-cc-pvtz
reference uhf
e_convergence 10
scf_type pk
freeze_core true
}

set ccenergy {
e_convergence 10
r_convergence 10
}

e = energy('ccsd(t)')

print_out('Stephenergy {}'.format(e))

--------------------------------------------------------------------------

    Molecular point group: c2v

    Geometry (in Angstrom), charge = 0, multiplicity = 3:

       Center              X                  Y                   Z               Mass
    ------------   -----------------  -----------------  -----------------  -----------------
         O            0.000000000000     0.000000000000    -1.442928669299    15.994914619570
         H            0.000000000000    -0.729955010400    -0.824386789781     1.007825032230
         H           -0.000000000000     0.729955010400    -0.824386789781     1.007825032230
         O            0.000000000000     0.000000000000     1.546816393960    15.994914619570

  Charge       = 0
  Multiplicity = 3
  Basis Set: AUG-CC-PVTZ
    Blend: AUG-CC-PVTZ

    Orbital Energies [Eh]
    ---------------------

    Alpha Occupied:

       1A1   -20.734587     2A1   -20.559822     3A1    -1.444890
       4A1    -1.349205     1B2    -0.736402     1B1    -0.735247
       2B2    -0.699404     5A1    -0.644411     6A1    -0.581313
       2B1    -0.503670

    Alpha Virtual:

       7A1     0.036228     3B2     0.048852     8A1     0.130042
       3B1     0.130431     9A1     0.153432     4B2     0.159271
       4B1     0.186377     5B2     0.187075    10A1     0.192431
      11A1     0.265344     6B2     0.265474     1A2     0.266475
      12A1     0.276343     5B1     0.326788     7B2     0.388235
      13A1     0.388396    14A1     0.457936     8B2     0.476543
       2A2     0.614054     9B2     0.631326    15A1     0.631456
      16A1     0.652814     6B1     0.655694    17A1     0.717531
       3A2     0.733656    10B2     0.752653     7B1     0.768269
      18A1     0.775277     8B1     0.825227    11B2     0.851901
      19A1     0.866874     9B1     0.921357    12B2     0.945806
       4A2     0.954179    20A1     0.964291    10B1     1.004143
      21A1     1.007091    13B2     1.021567    14B2     1.071984
      22A1     1.072412    11B1     1.178816    23A1     1.200293
       5A2     1.203282    24A1     1.222565    15B2     1.265089
      16B2     1.358026    25A1     1.456749     6A2     1.513447
      12B1     1.584170    26A1     1.774855    27A1     1.837952
      17B2     1.870119    18B2     1.959332    13B1     1.975073
      28A1     2.011889     7A2     2.019908    19B2     2.022790
      14B1     2.045120    29A1     2.049073     8A2     2.091706
      30A1     2.104664    20B2     2.126808    15B1     2.164961
      31A1     2.220031    16B1     2.327708    21B2     2.346654
       9A2     2.351677    32A1     2.363785    33A1     2.429300
      34A1     2.506515    22B2     2.540826    17B1     2.575439
      35A1     2.634788    23B2     2.698512    18B1     2.729103
      24B2     2.882145    36A1     2.887046    10A2     2.896860
      25B2     3.699291    37A1     3.731144    19B1     4.056002
      11A2     4.071498    20B1     4.125979    26B2     4.134246
      38A1     4.195586    21B1     4.235879    27B2     4.305021
      39A1     4.315305    12A2     4.393243    22B1     4.431549
      40A1     4.534882    28B2     4.577599    41A1     4.791297
      29B2     4.903077    13A2     5.157461    30B2     5.217095
      31B2     5.255506    42A1     5.394036    23B1     5.561219
      43A1     5.642608    44A1     6.248838    24B1     6.311240
      32B2     6.314910    14A2     6.395708    45A1     6.410757
      25B1     6.433493    33B2     6.496584    46A1     6.526739
      34B2     6.576629    26B1     6.787485    15A2     6.821586
      47A1     6.824364    27B1     6.942879    35B2     6.984193
      48A1     6.997731    49A1     7.048799    28B1     7.149852
      29B1     7.277016    36B2     7.321495    16A2     7.337544
      17A2     7.360726    50A1     7.417856    51A1     7.578793
      52A1     7.874993    37B2     7.992185    38B2     8.871747
      53A1     8.995237    54A1    15.939738

    Beta Occupied:

       1A1   -20.656139     2A1   -20.559902     3A1    -1.349813
       4A1    -1.102890     1B2    -0.699958     5A1    -0.597308
       6A1    -0.539710     1B1    -0.503533

    Beta Virtual:

       2B2     0.031848     7A1     0.037555     2B1     0.045790
       3B2     0.068994     8A1     0.135254     9A1     0.156078
       3B1     0.161104     4B2     0.179142    10A1     0.193021
       4B1     0.225421     5B2     0.227920     6B2     0.266883
       1A2     0.267201    11A1     0.271862    12A1     0.281681
       5B1     0.329507    13A1     0.392313     7B2     0.398087
      14A1     0.459913     8B2     0.476971     9B2     0.632325
       2A2     0.646068    15A1     0.653888     6B1     0.665597
      16A1     0.665930    17A1     0.718513     3A2     0.734776
      10B2     0.768191     7B1     0.773779    18A1     0.789826
      19A1     0.870635     8B1     0.907832    11B2     0.938800
       9B1     0.941948     4A2     0.957026    12B2     0.958858
      20A1     0.966268    21A1     1.012482    13B2     1.041970
      10B1     1.042077    22A1     1.075817    14B2     1.086746
      11B1     1.193638     5A2     1.204462    23A1     1.220099
      24A1     1.250025    15B2     1.265283    16B2     1.376360
      25A1     1.472689     6A2     1.513854    12B1     1.584704
      26A1     1.796474    27A1     1.846097    17B2     1.871728
      18B2     1.973496    13B1     2.011894    28A1     2.042286
      19B2     2.045463    14B1     2.076551     7A2     2.091060
      29A1     2.107668    20B2     2.188524     8A2     2.189638
      30A1     2.195565    15B1     2.216582    31A1     2.261553
      16B1     2.339160     9A2     2.357831    32A1     2.372655
      21B2     2.373855    33A1     2.439797    34A1     2.509229
      22B2     2.549076    17B1     2.580118    35A1     2.640812
      23B2     2.699901    18B1     2.729320    24B2     2.883123
      36A1     2.888005    10A2     2.896952    25B2     3.700491
      37A1     3.732226    11A2     4.071644    19B1     4.118062
      38A1     4.196682    20B1     4.218518    21B1     4.252099
      26B2     4.297404    27B2     4.306456    39A1     4.333973
      12A2     4.393315    22B1     4.432585    40A1     4.562366
      28B2     4.579994    41A1     4.792404    29B2     4.903991
      13A2     5.157526    30B2     5.217146    31B2     5.255792
      42A1     5.394501    23B1     5.561245    43A1     5.642934
      44A1     6.256068    24B1     6.419709    32B2     6.422891
      14A2     6.472095    45A1     6.482735    25B1     6.487352
      33B2     6.504028    46A1     6.571081    34B2     6.626189
      26B1     6.794693    47A1     6.996875    15A2     7.009796
      48A1     7.022106    27B1     7.048037    35B2     7.092488
      49A1     7.122268    28B1     7.151500    29B1     7.277211
      36B2     7.321811    16A2     7.337776    17A2     7.360834
      50A1     7.418661    51A1     7.580397    52A1     7.875253
      37B2     7.992224    38B2     8.871582    53A1     9.074429
      54A1    15.939757

    Final Occupation by Irrep:
             A1    A2    B1    B2
    DOCC [     6,    0,    1,    1 ]
    SOCC [     0,    0,    1,    1 ]

  @UHF Final Energy:  -150.87123637970114

   => Energetics <=

    Nuclear Repulsion Energy =             23.9522575047919020
    One-Electron Energy =                -255.6487835633453187
    Two-Electron Energy =                  80.8252896788522577
    Total Energy =                       -150.8712363797011449

  UHF NO Occupations:
  HONO-2 :    6 A1 1.9970869
  HONO-1 :    2 B1 1.0000000
  HONO-0 :    2 B2 1.0000000
  LUNO+0 :    7 A1 0.0029131
  LUNO+1 :    8 A1 0.0015937
  LUNO+2 :    9 A1 0.0000024
  LUNO+3 :   10 A1 0.0000023

Computation Completed

Properties will be evaluated at   0.000000,   0.000000,   0.000000 [a0]

Properties computed using the SCF density matrix

  Nuclear Dipole Moment: [e a0]
     X:     0.0000      Y:     0.0000      Z:    -1.5452

  Electronic Dipole Moment: [e a0]
     X:     0.0000      Y:     0.0000      Z:     2.4265

  Dipole Moment: [e a0]
     X:     0.0000      Y:     0.0000      Z:     0.8814     Total:     0.8814

  Dipole Moment: [D]
     X:     0.0000      Y:     0.0000      Z:     2.2402     Total:     2.2402

*** tstop() called on c2-18.compute.lan at Wed Mar 10 09:23:53 2021
Module time:
	user time   =      43.78 seconds =       0.73 minutes
	system time =       2.84 seconds =       0.05 minutes
	total time  =          6 seconds =       0.10 minutes
Total time:
	user time   =      43.78 seconds =       0.73 minutes
	system time =       2.84 seconds =       0.05 minutes
	total time  =          6 seconds =       0.10 minutes
 MINTS: Wrapper to libmints.
   by Justin Turney

   Calculation information:
      Number of threads:                12
      Number of atoms:                   4
      Number of AO shells:              46
      Number of SO shells:              37
      Number of primitives:             82
      Number of atomic orbitals:       160
      Number of basis functions:       138

      Number of irreps:                  4
      Integral cutoff                 0.00e+00
      Number of functions per irrep: [  54   17   29   38 ]

 OEINTS: Overlap, kinetic, potential, dipole, and quadrupole integrals
         stored in file 35.

      Computing two-electron integrals...done
      Computed 11334613 non-zero two-electron integrals.
        Stored in file 33.

*** tstart() called on c2-18.compute.lan
*** at Wed Mar 10 09:23:56 2021

	Wfn Parameters:
	--------------------
	Wavefunction         = CCSD_T
	Number of irreps     = 4
	Number of MOs        = 138
	Number of active MOs = 136
	AO-Basis             = NONE
	Semicanonical        = false
	Reference            = UHF
	Print Level          = 1

	IRREP	# MOs	# FZDC	# DOCC	# SOCC	# VIRT	# FZVR
	-----	-----	------	------	------	------	------
	 A1	   54	    2	    4	    0	    48	    0
	 A2	   17	    0	    0	    0	    17	    0
	 B1	   29	    0	    1	    1	    27	    0
	 B2	   38	    0	    1	    1	    36	    0
	Transforming integrals...
	IWL integrals will be deleted.
	(OO|OO)...
	Presorting SO-basis two-electron integrals.
	Sorting File: SO Ints (nn|nn) nbuckets = 1
	Transforming the one-electron integrals and constructing Fock matrices
	Starting AA/AB first half-transformation.
	Sorting AA/AB half-transformed integrals.
	Starting BB first half-transformation.
	Sorting BB half-transformed integrals.
	First half integral transformation complete.
	Starting AA second half-transformation.
	Starting AB second half-transformation.
	Starting BB second half-transformation.
	Two-electron integral transformation complete.
	(OO|OV)...
	Starting AA second half-transformation.
	Starting AB second half-transformation.
	Starting BB second half-transformation.
	Two-electron integral transformation complete.
	(OO|VV)...
	Starting AA second half-transformation.
	Starting AB second half-transformation.
	Starting BB second half-transformation.
	Two-electron integral transformation complete.
	(OV|OO)...
	Starting AA/AB first half-transformation.
	Sorting AA/AB half-transformed integrals.
	Starting BB first half-transformation.
	Sorting BB half-transformed integrals.
	First half integral transformation complete.
	Starting AA second half-transformation.
	Starting AB second half-transformation.
	Starting BB second half-transformation.
	Two-electron integral transformation complete.
	(OV|OV)...
	Starting AA second half-transformation.
	Starting AB second half-transformation.
	Starting BB second half-transformation.
	Two-electron integral transformation complete.
	(OV|VV)...
	Starting AA second half-transformation.
	Starting AB second half-transformation.
	Starting BB second half-transformation.
	Two-electron integral transformation complete.
	(VV|OO)...
	Starting AA/AB first half-transformation.
	Sorting AA/AB half-transformed integrals.
	Starting BB first half-transformation.
	Sorting BB half-transformed integrals.
	First half integral transformation complete.
	Starting AA second half-transformation.
	Starting AB second half-transformation.
	Starting BB second half-transformation.
	Two-electron integral transformation complete.
	(VV|OV)...
	Starting AA second half-transformation.
	Starting AB second half-transformation.
	Starting BB second half-transformation.
	Two-electron integral transformation complete.
	(VV|VV)...
	Starting AA second half-transformation.
	Starting AB second half-transformation.
	Starting BB second half-transformation.
	Two-electron integral transformation complete.
	Frozen core energy     =   -126.23245779850760

	Size of irrep 0 of <AB|CD> integrals:      5.040 (MW) /     40.320 (MB)
	Size of irrep 1 of <AB|CD> integrals:      3.197 (MW) /     25.576 (MB)
	Size of irrep 2 of <AB|CD> integrals:      3.640 (MW) /     29.124 (MB)
	Size of irrep 3 of <AB|CD> integrals:      4.783 (MW) /     38.264 (MB)
	Total:                                    16.660 (MW) /    133.283 (MB)

	Size of irrep 0 of <ab|cd> integrals:      5.327 (MW) /     42.615 (MB)
	Size of irrep 1 of <ab|cd> integrals:      3.430 (MW) /     27.439 (MB)
	Size of irrep 2 of <ab|cd> integrals:      3.893 (MW) /     31.142 (MB)
	Size of irrep 3 of <ab|cd> integrals:      5.072 (MW) /     40.572 (MB)
	Total:                                    17.721 (MW) /    141.768 (MB)

	Size of irrep 0 of <Ab|Cd> integrals:     21.912 (MW) /    175.294 (MB)
	Size of irrep 1 of <Ab|Cd> integrals:     13.242 (MW) /    105.939 (MB)
	Size of irrep 2 of <Ab|Cd> integrals:     15.062 (MW) /    120.497 (MB)
	Size of irrep 3 of <Ab|Cd> integrals:     19.705 (MW) /    157.638 (MB)
	Total:                                    69.921 (MW) /    559.368 (MB)

	Size of irrep 0 of <IA|BC> integrals:      1.469 (MW) /     11.748 (MB)
	Size of irrep 1 of <IA|BC> integrals:      0.694 (MW) /      5.550 (MB)
	Size of irrep 2 of <IA|BC> integrals:      0.908 (MW) /      7.266 (MB)
	Size of irrep 3 of <IA|BC> integrals:      1.198 (MW) /      9.588 (MB)
	Total:                                     4.269 (MW) /     34.152 (MB)

	Size of irrep 0 of <ia|bc> integrals:      1.220 (MW) /      9.758 (MB)
	Size of irrep 1 of <ia|bc> integrals:      0.493 (MW) /      3.941 (MB)
	Size of irrep 2 of <ia|bc> integrals:      0.698 (MW) /      5.588 (MB)
	Size of irrep 3 of <ia|bc> integrals:      0.959 (MW) /      7.675 (MB)
	Total:                                     3.370 (MW) /     26.961 (MB)

	Size of irrep 0 of <Ia|Bc> integrals:      1.507 (MW) /     12.058 (MB)
	Size of irrep 1 of <Ia|Bc> integrals:      0.721 (MW) /      5.764 (MB)
	Size of irrep 2 of <Ia|Bc> integrals:      0.939 (MW) /      7.514 (MB)
	Size of irrep 3 of <Ia|Bc> integrals:      1.234 (MW) /      9.872 (MB)
	Total:                                     4.401 (MW) /     35.208 (MB)

	Size of irrep 0 of <iA|bC> integrals:      1.194 (MW) /      9.549 (MB)
	Size of irrep 1 of <iA|bC> integrals:      0.477 (MW) /      3.814 (MB)
	Size of irrep 2 of <iA|bC> integrals:      0.671 (MW) /      5.371 (MB)
	Size of irrep 3 of <iA|bC> integrals:      0.928 (MW) /      7.422 (MB)
	Total:                                     3.270 (MW) /     26.156 (MB)

	Size of irrep 0 of tIjAb amplitudes:       0.094 (MW) /      0.749 (MB)
	Size of irrep 1 of tIjAb amplitudes:       0.015 (MW) /      0.116 (MB)
	Size of irrep 2 of tIjAb amplitudes:       0.047 (MW) /      0.373 (MB)
	Size of irrep 3 of tIjAb amplitudes:       0.053 (MW) /      0.426 (MB)
	Total:                                     0.208 (MW) /      1.664 (MB)

	Nuclear Rep. energy          =     23.95225750479190
	SCF energy                   =   -150.87123637970114
	One-electron energy          =    -85.69431758336077
	Two-electron (AA) energy     =     10.33695762577901
	Two-electron (BB) energy     =      5.49905472428098
	Two-electron (AB) energy     =     21.26726914731314
	Two-electron energy          =     37.10328149737313
	Reference energy             =   -150.87123637970333

*** tstop() called on c2-18.compute.lan at Wed Mar 10 09:24:45 2021
Module time:
	user time   =     397.75 seconds =       6.63 minutes
	system time =      24.74 seconds =       0.41 minutes
	total time  =         49 seconds =       0.82 minutes
Total time:
	user time   =     447.04 seconds =       7.45 minutes
	system time =      28.17 seconds =       0.47 minutes
	total time  =         58 seconds =       0.97 minutes
            **************************
            *                        *
            *        CCENERGY        *
            *                        *
            **************************

    Nuclear Rep. energy (wfn)     =   23.952257504791902
    SCF energy          (wfn)     = -150.871236379701145
    Reference energy    (file100) = -150.871236379703333

    Input parameters:
    -----------------
    Wave function   =     CCSD_T
    Reference wfn   =     UHF
    Brueckner       =     No
    Memory (Mbytes) =     4000.0
    Maxiter         =     50
    R_Convergence   =     1.0e-10
    E_Convergence   =     1.0e-10
    Restart         =     Yes
    DIIS            =     Yes
    AO Basis        =     NONE
    ABCD            =     NEW
    Cache Level     =     2
    Cache Type      =     LRU
    Print Level     =     1
    Num. of threads =     12
    # Amps to Print =     10
    Print MP2 Amps? =     No
    Analyze T2 Amps =     No
    Print Pair Ener =     No
    Local CC        =     No
    SCS-MP2         =     False
    SCSN-MP2        =     False
    SCS-CCSD        =     False

MP2 correlation energy -0.4164847388088510
                Solving CC Amplitude Equations
                ------------------------------
  Iter             Energy              RMS        T1Diag      D1Diag    New D1Diag    D2Diag
  ----     ---------------------    ---------   ----------  ----------  ----------   --------
     0        -0.416484738808851    0.000e+00    0.000000    0.000000    0.000000    0.000000
     1        -0.427385906440083    5.647e-02    0.010456    0.000000    0.000000    0.000000
     2        -0.435496127622806    1.674e-02    0.011018    0.000000    0.000000    0.000000
     3        -0.437565297465095    8.581e-03    0.012900    0.000000    0.000000    0.000000
     4        -0.437442283319624    2.542e-03    0.013290    0.000000    0.000000    0.000000
     5        -0.437422943091558    1.425e-03    0.013469    0.000000    0.000000    0.000000
     6        -0.437452430412166    5.550e-04    0.013512    0.000000    0.000000    0.000000
     7        -0.437457566398199    3.201e-04    0.013517    0.000000    0.000000    0.000000
     8        -0.437457907922891    1.124e-04    0.013517    0.000000    0.000000    0.000000
     9        -0.437459324883352    6.243e-05    0.013521    0.000000    0.000000    0.000000
    10        -0.437457321974237    3.099e-05    0.013523    0.000000    0.000000    0.000000
    11        -0.437457587938963    1.552e-05    0.013525    0.000000    0.000000    0.000000
    12        -0.437457544344232    5.931e-06    0.013526    0.000000    0.000000    0.000000
    13        -0.437457599910793    2.027e-06    0.013526    0.000000    0.000000    0.000000
    14        -0.437457679624358    8.276e-07    0.013526    0.000000    0.000000    0.000000
    15        -0.437457686871156    2.455e-07    0.013526    0.000000    0.000000    0.000000
    16        -0.437457688070203    1.275e-07    0.013526    0.000000    0.000000    0.000000
    17        -0.437457689395342    4.448e-08    0.013526    0.000000    0.000000    0.000000
    18        -0.437457688531253    2.150e-08    0.013526    0.000000    0.000000    0.000000

      * MP2 total energy                      = -151.287721118512195
      * CCSD total energy                     = -151.308694068083810
      * CCSD(T) total energy                     = -151.321024264838570
*** Psi4 exiting successfully. Buy a developer a beer!
