                               Psi4 1.3.2 release

  ==> Input File <==

--------------------------------------------------------------------------
memory 4 GB

molecule  {
0 3
O    0.000000000000    0.000000000000   -1.334443217500
H    0.000000000000   -0.764019785700   -0.748670060700
H   -0.000000000000    0.764019785700   -0.748670060700
O    0.000000000000   -0.000000000000    1.428789257600
}
set {
basis aug-cc-pvtz
reference uhf
e_convergence 10
scf_type pk
freeze_core true
}

set ccenergy {
e_convergence 10
r_convergence 10
}

e = energy('ccsd(t)')

print_out('Stephenergy {}'.format(e))

--------------------------------------------------------------------------

    Molecular point group: c2v

    Geometry (in Angstrom), charge = 0, multiplicity = 3:

       Center              X                  Y                   Z               Mass
    ------------   -----------------  -----------------  -----------------  -----------------
         O            0.000000000000     0.000000000000    -1.334443217500    15.994914619570
         H            0.000000000000    -0.764019785700    -0.748670060700     1.007825032230
         H           -0.000000000000     0.764019785700    -0.748670060700     1.007825032230
         O            0.000000000000     0.000000000000     1.428789257600    15.994914619570

  Charge       = 0
  Multiplicity = 3
  Basis Set: AUG-CC-PVTZ
    Blend: AUG-CC-PVTZ

    Orbital Energies [Eh]
    ---------------------

    Alpha Occupied:

       1A1   -20.732890     2A1   -20.555895     3A1    -1.445166
       4A1    -1.340281     1B2    -0.737608     1B1    -0.734811
       2B2    -0.704592     5A1    -0.648019     6A1    -0.564047
       2B1    -0.499749

    Alpha Virtual:

       7A1     0.036108     3B2     0.048379     8A1     0.127602
       3B1     0.130894     9A1     0.155222     4B2     0.160373
       5B2     0.186164     4B1     0.188910    10A1     0.193235
       1A2     0.263445    11A1     0.265187     6B2     0.270665
      12A1     0.282068     5B1     0.334975     7B2     0.389501
      13A1     0.401217    14A1     0.452707     8B2     0.475218
       2A2     0.620689     9B2     0.637427    15A1     0.641195
       6B1     0.658310    16A1     0.671278    17A1     0.711843
       3A2     0.727554    10B2     0.758788    18A1     0.762306
       7B1     0.791426     8B1     0.829621    11B2     0.854917
      19A1     0.879295     9B1     0.922769    12B2     0.941999
       4A2     0.967056    20A1     0.977735    10B1     1.020011
      21A1     1.025785    13B2     1.052003    14B2     1.087398
      22A1     1.096168    23A1     1.163553     5A2     1.202612
      11B1     1.203269    24A1     1.223214    15B2     1.260288
      16B2     1.397654     6A2     1.513733    25A1     1.541719
      12B1     1.595011    17B2     1.788492    26A1     1.791531
      27A1     1.841991    18B2     1.953367    13B1     1.977885
      28A1     2.025469     7A2     2.025854    19B2     2.038876
      29A1     2.053264    14B1     2.053722    30A1     2.131113
       8A2     2.131429    20B2     2.163583    15B1     2.180909
      31A1     2.219618    32A1     2.364522     9A2     2.367380
      16B1     2.392280    21B2     2.397745    33A1     2.453250
      34A1     2.518167    17B1     2.533315    22B2     2.537018
      35A1     2.689523    18B1     2.737108    23B2     2.737790
      36A1     2.887534    10A2     2.890420    24B2     2.921935
      25B2     3.676383    37A1     3.787448    11A2     4.041504
      19B1     4.065887    20B1     4.119588    26B2     4.159258
      38A1     4.247947    27B2     4.272254    21B1     4.313219
      12A2     4.389729    39A1     4.394728    22B1     4.438336
      28B2     4.603270    40A1     4.604193    41A1     4.751702
      29B2     4.876174    30B2     5.151384    13A2     5.159738
      31B2     5.286697    42A1     5.369617    23B1     5.520251
      43A1     5.701155    44A1     6.207804    24B1     6.314626
      32B2     6.320752    14A2     6.418918    45A1     6.441367
      25B1     6.465236    33B2     6.531098    46A1     6.572620
      34B2     6.648232    26B1     6.778271    15A2     6.826913
      47A1     6.829174    27B1     6.941650    48A1     6.950584
      35B2     6.996974    49A1     7.047885    28B1     7.167605
      29B1     7.268444    16A2     7.315727    17A2     7.368694
      50A1     7.376481    36B2     7.387729    51A1     7.581657
      37B2     7.941488    52A1     7.969161    38B2     8.800872
      53A1     9.332846    54A1    15.760291

    Beta Occupied:

       1A1   -20.654702     2A1   -20.555975     3A1    -1.341405
       4A1    -1.103456     1B2    -0.706352     5A1    -0.594046
       6A1    -0.530012     1B1    -0.499371

    Beta Virtual:

       2B2     0.031078     7A1     0.037432     2B1     0.046423
       3B2     0.068767     8A1     0.132257     9A1     0.157750
       3B1     0.161537     4B2     0.177609    10A1     0.193944
       4B1     0.226383     5B2     0.229112     1A2     0.264385
      11A1     0.268857     6B2     0.271697    12A1     0.290604
       5B1     0.339540     7B2     0.402306    13A1     0.405329
      14A1     0.454816     8B2     0.475565     9B2     0.637802
       2A2     0.652908     6B1     0.667620    15A1     0.667916
      16A1     0.682403    17A1     0.713298     3A2     0.728545
      18A1     0.776062    10B2     0.778028     7B1     0.801610
      19A1     0.882757     8B1     0.916981    11B2     0.933015
       9B1     0.937608    12B2     0.961823     4A2     0.970598
      20A1     0.979462    21A1     1.029657    10B1     1.052575
      13B2     1.057147    22A1     1.103153    14B2     1.115109
      23A1     1.200481     5A2     1.203768    11B1     1.220904
      24A1     1.227861    15B2     1.260845    16B2     1.417828
       6A2     1.514328    25A1     1.553717    12B1     1.595782
      17B2     1.790578    26A1     1.808014    27A1     1.860386
      18B2     1.966287    13B1     2.013154    19B2     2.063490
      28A1     2.070503    14B1     2.090024    29A1     2.111868
       7A2     2.123465     8A2     2.200928    30A1     2.215727
      15B1     2.228375    20B2     2.231187    31A1     2.245001
       9A2     2.375465    32A1     2.389395    16B1     2.406372
      21B2     2.418103    33A1     2.457098    34A1     2.523245
      17B1     2.536135    22B2     2.544447    35A1     2.695001
      18B1     2.737379    23B2     2.740616    36A1     2.889273
      10A2     2.890498    24B2     2.922552    25B2     3.677581
      37A1     3.789735    11A2     4.041627    19B1     4.116452
      20B1     4.230179    38A1     4.255007    26B2     4.262397
      21B1     4.320397    27B2     4.329298    12A2     4.389778
      39A1     4.406842    22B1     4.441642    28B2     4.609105
      40A1     4.633663    41A1     4.751963    29B2     4.877535
      30B2     5.151854    13A2     5.159883    31B2     5.287052
      42A1     5.370013    23B1     5.520323    43A1     5.701769
      44A1     6.213290    24B1     6.422509    32B2     6.428579
      14A2     6.495199    45A1     6.513762    25B1     6.521161
      33B2     6.536445    46A1     6.616042    34B2     6.698919
      26B1     6.779297    47A1     6.949248    15A2     7.014365
      48A1     7.021129    27B1     7.049652    35B2     7.104158
      49A1     7.127674    28B1     7.169996    29B1     7.268643
      16A2     7.315934    17A2     7.369025    50A1     7.376837
      36B2     7.387879    51A1     7.583308    37B2     7.941673
      52A1     7.969997    38B2     8.800661    53A1     9.408874
      54A1    15.760292

    Final Occupation by Irrep:
             A1    A2    B1    B2
    DOCC [     6,    0,    1,    1 ]
    SOCC [     0,    0,    1,    1 ]

  @UHF Final Energy:  -150.86802210804342

   => Energetics <=

    Nuclear Repulsion Energy =             25.0664038905265940
    One-Electron Energy =                -257.9204763544059915
    Two-Electron Energy =                  81.9860503558359710
    Total Energy =                       -150.8680221080434194

  UHF NO Occupations:
  HONO-2 :    6 A1 1.9971195
  HONO-1 :    2 B1 1.0000000
  HONO-0 :    2 B2 1.0000000
  LUNO+0 :    7 A1 0.0028805
  LUNO+1 :    8 A1 0.0014912
  LUNO+2 :    9 A1 0.0000051
  LUNO+3 :    3 B1 0.0000046

Computation Completed

Properties will be evaluated at   0.000000,   0.000000,   0.000000 [a0]

Properties computed using the SCF density matrix

  Nuclear Dipole Moment: [e a0]
     X:     0.0000      Y:     0.0000      Z:    -1.4033

  Electronic Dipole Moment: [e a0]
     X:     0.0000      Y:     0.0000      Z:     2.2561

  Dipole Moment: [e a0]
     X:     0.0000      Y:     0.0000      Z:     0.8529     Total:     0.8529

  Dipole Moment: [D]
     X:     0.0000      Y:     0.0000      Z:     2.1678     Total:     2.1678

*** tstop() called on b1-8.compute.lan at Wed Mar 10 09:19:38 2021
Module time:
	user time   =      36.74 seconds =       0.61 minutes
	system time =       0.96 seconds =       0.02 minutes
	total time  =          4 seconds =       0.07 minutes
Total time:
	user time   =      36.74 seconds =       0.61 minutes
	system time =       0.96 seconds =       0.02 minutes
	total time  =          4 seconds =       0.07 minutes
 MINTS: Wrapper to libmints.
   by Justin Turney

   Calculation information:
      Number of threads:                12
      Number of atoms:                   4
      Number of AO shells:              46
      Number of SO shells:              37
      Number of primitives:             82
      Number of atomic orbitals:       160
      Number of basis functions:       138

      Number of irreps:                  4
      Integral cutoff                 0.00e+00
      Number of functions per irrep: [  54   17   29   38 ]

 OEINTS: Overlap, kinetic, potential, dipole, and quadrupole integrals
         stored in file 35.

      Computing two-electron integrals...done
      Computed 11318449 non-zero two-electron integrals.
        Stored in file 33.

*** tstart() called on b1-8.compute.lan
*** at Wed Mar 10 09:19:40 2021

	Wfn Parameters:
	--------------------
	Wavefunction         = CCSD_T
	Number of irreps     = 4
	Number of MOs        = 138
	Number of active MOs = 136
	AO-Basis             = NONE
	Semicanonical        = false
	Reference            = UHF
	Print Level          = 1

	IRREP	# MOs	# FZDC	# DOCC	# SOCC	# VIRT	# FZVR
	-----	-----	------	------	------	------	------
	 A1	   54	    2	    4	    0	    48	    0
	 A2	   17	    0	    0	    0	    17	    0
	 B1	   29	    0	    1	    1	    27	    0
	 B2	   38	    0	    1	    1	    36	    0
	Transforming integrals...
	IWL integrals will be deleted.
	(OO|OO)...
	Presorting SO-basis two-electron integrals.
	Sorting File: SO Ints (nn|nn) nbuckets = 1
	Transforming the one-electron integrals and constructing Fock matrices
	Starting AA/AB first half-transformation.
	Sorting AA/AB half-transformed integrals.
	Starting BB first half-transformation.
	Sorting BB half-transformed integrals.
	First half integral transformation complete.
	Starting AA second half-transformation.
	Starting AB second half-transformation.
	Starting BB second half-transformation.
	Two-electron integral transformation complete.
	(OO|OV)...
	Starting AA second half-transformation.
	Starting AB second half-transformation.
	Starting BB second half-transformation.
	Two-electron integral transformation complete.
	(OO|VV)...
	Starting AA second half-transformation.
	Starting AB second half-transformation.
	Starting BB second half-transformation.
	Two-electron integral transformation complete.
	(OV|OO)...
	Starting AA/AB first half-transformation.
	Sorting AA/AB half-transformed integrals.
	Starting BB first half-transformation.
	Sorting BB half-transformed integrals.
	First half integral transformation complete.
	Starting AA second half-transformation.
	Starting AB second half-transformation.
	Starting BB second half-transformation.
	Two-electron integral transformation complete.
	(OV|OV)...
	Starting AA second half-transformation.
	Starting AB second half-transformation.
	Starting BB second half-transformation.
	Two-electron integral transformation complete.
	(OV|VV)...
	Starting AA second half-transformation.
	Starting AB second half-transformation.
	Starting BB second half-transformation.
	Two-electron integral transformation complete.
	(VV|OO)...
	Starting AA/AB first half-transformation.
	Sorting AA/AB half-transformed integrals.
	Starting BB first half-transformation.
	Sorting BB half-transformed integrals.
	First half integral transformation complete.
	Starting AA second half-transformation.
	Starting AB second half-transformation.
	Starting BB second half-transformation.
	Two-electron integral transformation complete.
	(VV|OV)...
	Starting AA second half-transformation.
	Starting AB second half-transformation.
	Starting BB second half-transformation.
	Two-electron integral transformation complete.
	(VV|VV)...
	Starting AA second half-transformation.
	Starting AB second half-transformation.
	Starting BB second half-transformation.
	Two-electron integral transformation complete.
	Frozen core energy     =   -126.68912927171073

	Size of irrep 0 of <AB|CD> integrals:      5.040 (MW) /     40.320 (MB)
	Size of irrep 1 of <AB|CD> integrals:      3.197 (MW) /     25.576 (MB)
	Size of irrep 2 of <AB|CD> integrals:      3.640 (MW) /     29.124 (MB)
	Size of irrep 3 of <AB|CD> integrals:      4.783 (MW) /     38.264 (MB)
	Total:                                    16.660 (MW) /    133.283 (MB)

	Size of irrep 0 of <ab|cd> integrals:      5.327 (MW) /     42.615 (MB)
	Size of irrep 1 of <ab|cd> integrals:      3.430 (MW) /     27.439 (MB)
	Size of irrep 2 of <ab|cd> integrals:      3.893 (MW) /     31.142 (MB)
	Size of irrep 3 of <ab|cd> integrals:      5.072 (MW) /     40.572 (MB)
	Total:                                    17.721 (MW) /    141.768 (MB)

	Size of irrep 0 of <Ab|Cd> integrals:     21.912 (MW) /    175.294 (MB)
	Size of irrep 1 of <Ab|Cd> integrals:     13.242 (MW) /    105.939 (MB)
	Size of irrep 2 of <Ab|Cd> integrals:     15.062 (MW) /    120.497 (MB)
	Size of irrep 3 of <Ab|Cd> integrals:     19.705 (MW) /    157.638 (MB)
	Total:                                    69.921 (MW) /    559.368 (MB)

	Size of irrep 0 of <IA|BC> integrals:      1.469 (MW) /     11.748 (MB)
	Size of irrep 1 of <IA|BC> integrals:      0.694 (MW) /      5.550 (MB)
	Size of irrep 2 of <IA|BC> integrals:      0.908 (MW) /      7.266 (MB)
	Size of irrep 3 of <IA|BC> integrals:      1.198 (MW) /      9.588 (MB)
	Total:                                     4.269 (MW) /     34.152 (MB)

	Size of irrep 0 of <ia|bc> integrals:      1.220 (MW) /      9.758 (MB)
	Size of irrep 1 of <ia|bc> integrals:      0.493 (MW) /      3.941 (MB)
	Size of irrep 2 of <ia|bc> integrals:      0.698 (MW) /      5.588 (MB)
	Size of irrep 3 of <ia|bc> integrals:      0.959 (MW) /      7.675 (MB)
	Total:                                     3.370 (MW) /     26.961 (MB)

	Size of irrep 0 of <Ia|Bc> integrals:      1.507 (MW) /     12.058 (MB)
	Size of irrep 1 of <Ia|Bc> integrals:      0.721 (MW) /      5.764 (MB)
	Size of irrep 2 of <Ia|Bc> integrals:      0.939 (MW) /      7.514 (MB)
	Size of irrep 3 of <Ia|Bc> integrals:      1.234 (MW) /      9.872 (MB)
	Total:                                     4.401 (MW) /     35.208 (MB)

	Size of irrep 0 of <iA|bC> integrals:      1.194 (MW) /      9.549 (MB)
	Size of irrep 1 of <iA|bC> integrals:      0.477 (MW) /      3.814 (MB)
	Size of irrep 2 of <iA|bC> integrals:      0.671 (MW) /      5.371 (MB)
	Size of irrep 3 of <iA|bC> integrals:      0.928 (MW) /      7.422 (MB)
	Total:                                     3.270 (MW) /     26.156 (MB)

	Size of irrep 0 of tIjAb amplitudes:       0.094 (MW) /      0.749 (MB)
	Size of irrep 1 of tIjAb amplitudes:       0.015 (MW) /      0.116 (MB)
	Size of irrep 2 of tIjAb amplitudes:       0.047 (MW) /      0.373 (MB)
	Size of irrep 3 of tIjAb amplitudes:       0.053 (MW) /      0.426 (MB)
	Total:                                     0.208 (MW) /      1.664 (MB)

	Nuclear Rep. energy          =     25.06640389052659
	SCF energy                   =   -150.86802210804342
	One-electron energy          =    -87.04167838672646
	Two-electron (AA) energy     =     10.56555909662348
	Two-electron (BB) energy     =      5.61558350061320
	Two-electron (AB) energy     =     21.61523906262890
	Two-electron energy          =     37.79638165986559
	Reference energy             =   -150.86802210804501

*** tstop() called on b1-8.compute.lan at Wed Mar 10 09:20:01 2021
Module time:
	user time   =     149.70 seconds =       2.49 minutes
	system time =       7.68 seconds =       0.13 minutes
	total time  =         21 seconds =       0.35 minutes
Total time:
	user time   =     191.72 seconds =       3.20 minutes
	system time =       8.96 seconds =       0.15 minutes
	total time  =         27 seconds =       0.45 minutes
            **************************
            *                        *
            *        CCENERGY        *
            *                        *
            **************************

    Nuclear Rep. energy (wfn)     =   25.066403890526594
    SCF energy          (wfn)     = -150.868022108043419
    Reference energy    (file100) = -150.868022108045011

    Input parameters:
    -----------------
    Wave function   =     CCSD_T
    Reference wfn   =     UHF
    Brueckner       =     No
    Memory (Mbytes) =     4000.0
    Maxiter         =     50
    R_Convergence   =     1.0e-10
    E_Convergence   =     1.0e-10
    Restart         =     Yes
    DIIS            =     Yes
    AO Basis        =     NONE
    ABCD            =     NEW
    Cache Level     =     2
    Cache Type      =     LRU
    Print Level     =     1
    Num. of threads =     12
    # Amps to Print =     10
    Print MP2 Amps? =     No
    Analyze T2 Amps =     No
    Print Pair Ener =     No
    Local CC        =     No
    SCS-MP2         =     False
    SCSN-MP2        =     False
    SCS-CCSD        =     False

MP2 correlation energy -0.4171217738969925
                Solving CC Amplitude Equations
                ------------------------------
  Iter             Energy              RMS        T1Diag      D1Diag    New D1Diag    D2Diag
  ----     ---------------------    ---------   ----------  ----------  ----------   --------
     0        -0.417121773896993    0.000e+00    0.000000    0.000000    0.000000    0.000000
     1        -0.428024656693424    5.697e-02    0.010628    0.000000    0.000000    0.000000
     2        -0.436173683200536    1.688e-02    0.011214    0.000000    0.000000    0.000000
     3        -0.438254525274068    8.953e-03    0.013192    0.000000    0.000000    0.000000
     4        -0.438136082799835    2.720e-03    0.013662    0.000000    0.000000    0.000000
     5        -0.438111172783980    1.719e-03    0.013907    0.000000    0.000000    0.000000
     6        -0.438147738477563    7.260e-04    0.014011    0.000000    0.000000    0.000000
     7        -0.438153332673996    4.550e-04    0.014048    0.000000    0.000000    0.000000
     8        -0.438153129275671    1.833e-04    0.014064    0.000000    0.000000    0.000000
     9        -0.438154642956394    9.491e-05    0.014076    0.000000    0.000000    0.000000
    10        -0.438151782826419    4.077e-05    0.014082    0.000000    0.000000    0.000000
    11        -0.438152298157340    1.739e-05    0.014085    0.000000    0.000000    0.000000
    12        -0.438152284411282    6.581e-06    0.014086    0.000000    0.000000    0.000000
    13        -0.438152339410585    2.377e-06    0.014086    0.000000    0.000000    0.000000
    14        -0.438152441462283    9.532e-07    0.014086    0.000000    0.000000    0.000000
    15        -0.438152450214568    3.255e-07    0.014086    0.000000    0.000000    0.000000
    16        -0.438152451592826    1.679e-07    0.014086    0.000000    0.000000    0.000000
    17        -0.438152453060579    6.682e-08    0.014086    0.000000    0.000000    0.000000
    18        -0.438152451444892    3.270e-08    0.014086    0.000000    0.000000    0.000000

      * MP2 total energy                      = -151.285143881941991
      * CCSD total energy                     = -151.306174559243516
      * CCSD(T) total energy                     = -151.318622419943154
*** Psi4 exiting successfully. Buy a developer a beer!
