                               Psi4 1.3.2 release

  ==> Input File <==

--------------------------------------------------------------------------
memory 4 GB

molecule  {
0 3
O    0.000000000000    0.000000000000   -1.548221819245
H    0.000000000000   -0.752326346800   -0.941961087026
H   -0.000000000000    0.752326346800   -0.941961087026
O    0.000000000000    0.000000000000    1.666926043115
}
set {
basis aug-cc-pvtz
reference uhf
e_convergence 10
scf_type pk
freeze_core true
}

set ccenergy {
e_convergence 10
r_convergence 10
}

e = energy('ccsd(t)')

print_out('Stephenergy {}'.format(e))

--------------------------------------------------------------------------

    Molecular point group: c2v

    Geometry (in Angstrom), charge = 0, multiplicity = 3:

       Center              X                  Y                   Z               Mass
    ------------   -----------------  -----------------  -----------------  -----------------
         O           -0.000000000000     0.000000000000    -1.548221819245    15.994914619570
         H            0.000000000000    -0.752326346800    -0.941961087026     1.007825032230
         H           -0.000000000000     0.752326346800    -0.941961087026     1.007825032230
         O           -0.000000000000     0.000000000000     1.666926043115    15.994914619570

  Charge       = 0
  Multiplicity = 3
  Basis Set: AUG-CC-PVTZ
    Blend: AUG-CC-PVTZ

    Orbital Energies [Eh]
    ---------------------

    Alpha Occupied:

       1A1   -20.731175     2A1   -20.562730     3A1    -1.440570
       4A1    -1.344108     1B2    -0.732010     1B1    -0.731389
       2B2    -0.702208     5A1    -0.636560     6A1    -0.578801
       2B1    -0.504000

    Alpha Virtual:

       7A1     0.035784     3B2     0.048616     3B1     0.131476
       8A1     0.132878     9A1     0.150486     4B2     0.158783
       4B1     0.183798     5B2     0.185545    10A1     0.190364
      11A1     0.258130     6B2     0.260813     1A2     0.266027
      12A1     0.274703     5B1     0.323035    13A1     0.376364
       7B2     0.384484    14A1     0.453791     8B2     0.472986
       2A2     0.610360     9B2     0.623992    15A1     0.624038
      16A1     0.631486     6B1     0.646411    17A1     0.717099
       3A2     0.732008    10B2     0.743898     7B1     0.752718
      18A1     0.793116     8B1     0.832646    11B2     0.850281
      19A1     0.850871     9B1     0.918554     4A2     0.941033
      12B2     0.942525    20A1     0.957330    21A1     0.964698
      10B1     0.982176    13B2     0.989915    22A1     1.053141
      14B2     1.056961    11B1     1.144220     5A2     1.190174
      23A1     1.195279    24A1     1.254985    15B2     1.272909
      16B2     1.302551    25A1     1.392569     6A2     1.508864
      12B1     1.585840    26A1     1.697494    27A1     1.836562
      17B2     1.842446    18B2     1.965001    13B1     1.976943
      19B2     1.999723    28A1     2.005237     7A2     2.015684
      14B1     2.032799    29A1     2.040622     8A2     2.056411
      30A1     2.092457    20B2     2.100286    15B1     2.139313
      31A1     2.181932    16B1     2.294477    21B2     2.304718
       9A2     2.336379    32A1     2.387047    33A1     2.399968
      34A1     2.485110    22B2     2.512262    17B1     2.536333
      35A1     2.589354    23B2     2.695762    18B1     2.724209
      36A1     2.830765    10A2     2.888591    24B2     2.907120
      25B2     3.666056    37A1     3.739401    11A2     4.038294
      19B1     4.052379    26B2     4.104342    20B1     4.104896
      38A1     4.190694    21B1     4.268596    27B2     4.276225
      39A1     4.332177    12A2     4.383555    22B1     4.417120
      40A1     4.468567    28B2     4.535157    41A1     4.757036
      29B2     4.849582    13A2     5.136088    30B2     5.172411
      31B2     5.234431    42A1     5.358270    23B1     5.519508
      43A1     5.660401    44A1     6.204514    24B1     6.313315
      32B2     6.315103    14A2     6.378596    45A1     6.388139
      25B1     6.411770    33B2     6.479402    46A1     6.501558
      34B2     6.535461    26B1     6.756365    15A2     6.820506
      47A1     6.822414    48A1     6.934035    27B1     6.937091
      35B2     6.972440    49A1     7.037611    28B1     7.132842
      29B1     7.260993    16A2     7.311250    36B2     7.334853
      17A2     7.357071    50A1     7.376781    51A1     7.544155
      52A1     7.882458    37B2     7.933884    53A1     8.672498
      38B2     8.799029    54A1    15.613817

    Beta Occupied:

       1A1   -20.652651     2A1   -20.562791     3A1    -1.344425
       4A1    -1.098405     1B2    -0.702461     5A1    -0.587078
       6A1    -0.539057     1B1    -0.503963

    Beta Virtual:

       2B2     0.033885     7A1     0.036999     2B1     0.048296
       3B2     0.069524     8A1     0.138702     9A1     0.152992
       3B1     0.161116     4B2     0.180104    10A1     0.190744
       5B2     0.224730     4B1     0.225742     6B2     0.264238
       1A2     0.266505    11A1     0.266899    12A1     0.277257
       5B1     0.324286    13A1     0.379888     7B2     0.391472
      14A1     0.455284     8B2     0.473475     9B2     0.625809
      15A1     0.633528     2A2     0.642357    16A1     0.656596
       6B1     0.657433    17A1     0.718182     3A2     0.733265
       7B1     0.756065    10B2     0.756380    18A1     0.807233
      19A1     0.856607     8B1     0.910947     9B1     0.935860
      11B2     0.940337     4A2     0.943200    12B2     0.949994
      20A1     0.960037    21A1     0.969324    13B2     1.023881
      10B1     1.033160    22A1     1.054365    14B2     1.063134
      11B1     1.153968     5A2     1.191112    23A1     1.199310
      15B2     1.273104    24A1     1.293919    16B2     1.320423
      25A1     1.424081     6A2     1.509104    12B1     1.586102
      26A1     1.715220    27A1     1.838916    17B2     1.843695
      18B2     1.975414    13B1     2.014648    19B2     2.027482
      28A1     2.029855    14B1     2.057043     7A2     2.058642
      29A1     2.101395    20B2     2.152696    30A1     2.180773
       8A2     2.184641    15B1     2.200853    31A1     2.223226
      16B1     2.302199     9A2     2.340786    21B2     2.341098
      32A1     2.391025    33A1     2.423259    34A1     2.486865
      22B2     2.519259    17B1     2.541271    35A1     2.592165
      23B2     2.696125    18B1     2.724359    36A1     2.831474
      10A2     2.888645    24B2     2.908957    25B2     3.666300
      37A1     3.739593    11A2     4.038427    19B1     4.101510
      38A1     4.200727    20B1     4.226906    26B2     4.255825
      21B1     4.269080    27B2     4.292894    39A1     4.345797
      12A2     4.383623    22B1     4.417686    40A1     4.492291
      28B2     4.536082    41A1     4.757686    29B2     4.849976
      13A2     5.136127    30B2     5.172438    31B2     5.234525
      42A1     5.358741    23B1     5.519511    43A1     5.660726
      44A1     6.208481    24B1     6.422052    32B2     6.423583
      14A2     6.455131    45A1     6.461637    25B1     6.466169
      33B2     6.506096    46A1     6.548612    34B2     6.565466
      26B1     6.763858    47A1     6.936011    15A2     7.009222
      48A1     7.012463    27B1     7.042908    35B2     7.081210
      49A1     7.115635    28B1     7.133891    29B1     7.260995
      16A2     7.311282    36B2     7.336230    17A2     7.357203
      50A1     7.378098    51A1     7.545594    52A1     7.882640
      37B2     7.933874    53A1     8.755153    38B2     8.798924
      54A1    15.613818

    Final Occupation by Irrep:
             A1    A2    B1    B2
    DOCC [     6,    0,    1,    1 ]
    SOCC [     0,    0,    1,    1 ]

  @UHF Final Energy:  -150.87252908511721

   => Energetics <=

    Nuclear Repulsion Energy =             22.7666940870953773
    One-Electron Energy =                -253.3240649267205811
    Two-Electron Energy =                  79.6848417545079997
    Total Energy =                       -150.8725290851172076

  UHF NO Occupations:
  HONO-2 :    6 A1 1.9970786
  HONO-1 :    2 B2 1.0000000
  HONO-0 :    2 B1 1.0000000
  LUNO+0 :    7 A1 0.0029214
  LUNO+1 :    8 A1 0.0016509
  LUNO+2 :    9 A1 0.0000024
  LUNO+3 :   10 A1 0.0000010

Computation Completed

Properties will be evaluated at   0.000000,   0.000000,   0.000000 [a0]

Properties computed using the SCF density matrix

  Nuclear Dipole Moment: [e a0]
     X:    -0.0000      Y:     0.0000      Z:    -1.7655

  Electronic Dipole Moment: [e a0]
     X:     0.0000      Y:     0.0000      Z:     2.6172

  Dipole Moment: [e a0]
     X:    -0.0000      Y:     0.0000      Z:     0.8516     Total:     0.8516

  Dipole Moment: [D]
     X:    -0.0000      Y:     0.0000      Z:     2.1646     Total:     2.1646

*** tstop() called on c5-7.compute.lan at Wed Mar 10 09:34:31 2021
Module time:
	user time   =      46.10 seconds =       0.77 minutes
	system time =       0.74 seconds =       0.01 minutes
	total time  =          4 seconds =       0.07 minutes
Total time:
	user time   =      46.10 seconds =       0.77 minutes
	system time =       0.74 seconds =       0.01 minutes
	total time  =          4 seconds =       0.07 minutes
 MINTS: Wrapper to libmints.
   by Justin Turney

   Calculation information:
      Number of threads:                12
      Number of atoms:                   4
      Number of AO shells:              46
      Number of SO shells:              37
      Number of primitives:             82
      Number of atomic orbitals:       160
      Number of basis functions:       138

      Number of irreps:                  4
      Integral cutoff                 0.00e+00
      Number of functions per irrep: [  54   17   29   38 ]

 OEINTS: Overlap, kinetic, potential, dipole, and quadrupole integrals
         stored in file 35.

      Computing two-electron integrals...done
      Computed 11527283 non-zero two-electron integrals.
        Stored in file 33.

*** tstart() called on c5-7.compute.lan
*** at Wed Mar 10 09:34:34 2021

	Wfn Parameters:
	--------------------
	Wavefunction         = CCSD_T
	Number of irreps     = 4
	Number of MOs        = 138
	Number of active MOs = 136
	AO-Basis             = NONE
	Semicanonical        = false
	Reference            = UHF
	Print Level          = 1

	IRREP	# MOs	# FZDC	# DOCC	# SOCC	# VIRT	# FZVR
	-----	-----	------	------	------	------	------
	 A1	   54	    2	    4	    0	    48	    0
	 A2	   17	    0	    0	    0	    17	    0
	 B1	   29	    0	    1	    1	    27	    0
	 B2	   38	    0	    1	    1	    36	    0
	Transforming integrals...
	IWL integrals will be deleted.
	(OO|OO)...
	Presorting SO-basis two-electron integrals.
	Sorting File: SO Ints (nn|nn) nbuckets = 1
	Transforming the one-electron integrals and constructing Fock matrices
	Starting AA/AB first half-transformation.
	Sorting AA/AB half-transformed integrals.
	Starting BB first half-transformation.
	Sorting BB half-transformed integrals.
	First half integral transformation complete.
	Starting AA second half-transformation.
	Starting AB second half-transformation.
	Starting BB second half-transformation.
	Two-electron integral transformation complete.
	(OO|OV)...
	Starting AA second half-transformation.
	Starting AB second half-transformation.
	Starting BB second half-transformation.
	Two-electron integral transformation complete.
	(OO|VV)...
	Starting AA second half-transformation.
	Starting AB second half-transformation.
	Starting BB second half-transformation.
	Two-electron integral transformation complete.
	(OV|OO)...
	Starting AA/AB first half-transformation.
	Sorting AA/AB half-transformed integrals.
	Starting BB first half-transformation.
	Sorting BB half-transformed integrals.
	First half integral transformation complete.
	Starting AA second half-transformation.
	Starting AB second half-transformation.
	Starting BB second half-transformation.
	Two-electron integral transformation complete.
	(OV|OV)...
	Starting AA second half-transformation.
	Starting AB second half-transformation.
	Starting BB second half-transformation.
	Two-electron integral transformation complete.
	(OV|VV)...
	Starting AA second half-transformation.
	Starting AB second half-transformation.
	Starting BB second half-transformation.
	Two-electron integral transformation complete.
	(VV|OO)...
	Starting AA/AB first half-transformation.
	Sorting AA/AB half-transformed integrals.
	Starting BB first half-transformation.
	Sorting BB half-transformed integrals.
	First half integral transformation complete.
	Starting AA second half-transformation.
	Starting AB second half-transformation.
	Starting BB second half-transformation.
	Two-electron integral transformation complete.
	(VV|OV)...
	Starting AA second half-transformation.
	Starting AB second half-transformation.
	Starting BB second half-transformation.
	Two-electron integral transformation complete.
	(VV|VV)...
	Starting AA second half-transformation.
	Starting AB second half-transformation.
	Starting BB second half-transformation.
	Two-electron integral transformation complete.
	Frozen core energy     =   -125.78984883211447

	Size of irrep 0 of <AB|CD> integrals:      5.040 (MW) /     40.320 (MB)
	Size of irrep 1 of <AB|CD> integrals:      3.197 (MW) /     25.576 (MB)
	Size of irrep 2 of <AB|CD> integrals:      3.640 (MW) /     29.124 (MB)
	Size of irrep 3 of <AB|CD> integrals:      4.783 (MW) /     38.264 (MB)
	Total:                                    16.660 (MW) /    133.283 (MB)

	Size of irrep 0 of <ab|cd> integrals:      5.327 (MW) /     42.615 (MB)
	Size of irrep 1 of <ab|cd> integrals:      3.430 (MW) /     27.439 (MB)
	Size of irrep 2 of <ab|cd> integrals:      3.893 (MW) /     31.142 (MB)
	Size of irrep 3 of <ab|cd> integrals:      5.072 (MW) /     40.572 (MB)
	Total:                                    17.721 (MW) /    141.768 (MB)

	Size of irrep 0 of <Ab|Cd> integrals:     21.912 (MW) /    175.294 (MB)
	Size of irrep 1 of <Ab|Cd> integrals:     13.242 (MW) /    105.939 (MB)
	Size of irrep 2 of <Ab|Cd> integrals:     15.062 (MW) /    120.497 (MB)
	Size of irrep 3 of <Ab|Cd> integrals:     19.705 (MW) /    157.638 (MB)
	Total:                                    69.921 (MW) /    559.368 (MB)

	Size of irrep 0 of <IA|BC> integrals:      1.469 (MW) /     11.748 (MB)
	Size of irrep 1 of <IA|BC> integrals:      0.694 (MW) /      5.550 (MB)
	Size of irrep 2 of <IA|BC> integrals:      0.908 (MW) /      7.266 (MB)
	Size of irrep 3 of <IA|BC> integrals:      1.198 (MW) /      9.588 (MB)
	Total:                                     4.269 (MW) /     34.152 (MB)

	Size of irrep 0 of <ia|bc> integrals:      1.220 (MW) /      9.758 (MB)
	Size of irrep 1 of <ia|bc> integrals:      0.493 (MW) /      3.941 (MB)
	Size of irrep 2 of <ia|bc> integrals:      0.698 (MW) /      5.588 (MB)
	Size of irrep 3 of <ia|bc> integrals:      0.959 (MW) /      7.675 (MB)
	Total:                                     3.370 (MW) /     26.961 (MB)

	Size of irrep 0 of <Ia|Bc> integrals:      1.507 (MW) /     12.058 (MB)
	Size of irrep 1 of <Ia|Bc> integrals:      0.721 (MW) /      5.764 (MB)
	Size of irrep 2 of <Ia|Bc> integrals:      0.939 (MW) /      7.514 (MB)
	Size of irrep 3 of <Ia|Bc> integrals:      1.234 (MW) /      9.872 (MB)
	Total:                                     4.401 (MW) /     35.208 (MB)

	Size of irrep 0 of <iA|bC> integrals:      1.194 (MW) /      9.549 (MB)
	Size of irrep 1 of <iA|bC> integrals:      0.477 (MW) /      3.814 (MB)
	Size of irrep 2 of <iA|bC> integrals:      0.671 (MW) /      5.371 (MB)
	Size of irrep 3 of <iA|bC> integrals:      0.928 (MW) /      7.422 (MB)
	Total:                                     3.270 (MW) /     26.156 (MB)

	Size of irrep 0 of tIjAb amplitudes:       0.094 (MW) /      0.749 (MB)
	Size of irrep 1 of tIjAb amplitudes:       0.015 (MW) /      0.116 (MB)
	Size of irrep 2 of tIjAb amplitudes:       0.047 (MW) /      0.373 (MB)
	Size of irrep 3 of tIjAb amplitudes:       0.053 (MW) /      0.426 (MB)
	Total:                                     0.208 (MW) /      1.664 (MB)

	Nuclear Rep. energy          =     22.76669408709538
	SCF energy                   =   -150.87252908511721
	One-electron energy          =    -84.25371328025787
	Two-electron (AA) energy     =     10.11475696795731
	Two-electron (BB) energy     =      5.37885666855202
	Two-electron (AB) energy     =     20.91072530364852
	Two-electron energy          =     36.40433894015784
	Reference energy             =   -150.87252908511914

*** tstop() called on c5-7.compute.lan at Wed Mar 10 09:34:55 2021
Module time:
	user time   =      68.42 seconds =       1.14 minutes
	system time =       9.75 seconds =       0.16 minutes
	total time  =         21 seconds =       0.35 minutes
Total time:
	user time   =     120.16 seconds =       2.00 minutes
	system time =      10.90 seconds =       0.18 minutes
	total time  =         28 seconds =       0.47 minutes
            **************************
            *                        *
            *        CCENERGY        *
            *                        *
            **************************

    Nuclear Rep. energy (wfn)     =   22.766694087095377
    SCF energy          (wfn)     = -150.872529085117208
    Reference energy    (file100) = -150.872529085119140

    Input parameters:
    -----------------
    Wave function   =     CCSD_T
    Reference wfn   =     UHF
    Brueckner       =     No
    Memory (Mbytes) =     4000.0
    Maxiter         =     50
    R_Convergence   =     1.0e-10
    E_Convergence   =     1.0e-10
    Restart         =     Yes
    DIIS            =     Yes
    AO Basis        =     NONE
    ABCD            =     NEW
    Cache Level     =     2
    Cache Type      =     LRU
    Print Level     =     1
    Num. of threads =     12
    # Amps to Print =     10
    Print MP2 Amps? =     No
    Analyze T2 Amps =     No
    Print Pair Ener =     No
    Local CC        =     No
    SCS-MP2         =     False
    SCSN-MP2        =     False
    SCS-CCSD        =     False

MP2 correlation energy -0.4164890837615774
                Solving CC Amplitude Equations
                ------------------------------
  Iter             Energy              RMS        T1Diag      D1Diag    New D1Diag    D2Diag
  ----     ---------------------    ---------   ----------  ----------  ----------   --------
     0        -0.416489083761577    0.000e+00    0.000000    0.000000    0.000000    0.000000
     1        -0.427228129312705    5.680e-02    0.010467    0.000000    0.000000    0.000000
     2        -0.435388565146251    1.691e-02    0.010983    0.000000    0.000000    0.000000
     3        -0.437501650092543    8.530e-03    0.012839    0.000000    0.000000    0.000000
     4        -0.437377269040055    2.507e-03    0.013198    0.000000    0.000000    0.000000
     5        -0.437362324721603    1.305e-03    0.013352    0.000000    0.000000    0.000000
     6        -0.437388502602162    5.088e-04    0.013374    0.000000    0.000000    0.000000
     7        -0.437393201629178    2.552e-04    0.013368    0.000000    0.000000    0.000000
     8        -0.437393827508216    7.596e-05    0.013363    0.000000    0.000000    0.000000
     9        -0.437395148477039    3.759e-05    0.013364    0.000000    0.000000    0.000000
    10        -0.437393742882031    1.721e-05    0.013364    0.000000    0.000000    0.000000
    11        -0.437393856579680    9.783e-06    0.013364    0.000000    0.000000    0.000000
    12        -0.437393807003924    4.660e-06    0.013365    0.000000    0.000000    0.000000
    13        -0.437393832146948    2.004e-06    0.013365    0.000000    0.000000    0.000000
    14        -0.437393885805891    7.945e-07    0.013365    0.000000    0.000000    0.000000
    15        -0.437393888177157    2.029e-07    0.013365    0.000000    0.000000    0.000000
    16        -0.437393888614778    1.152e-07    0.013365    0.000000    0.000000    0.000000
    17        -0.437393889682513    3.423e-08    0.013365    0.000000    0.000000    0.000000
    18        -0.437393889190263    1.542e-08    0.013365    0.000000    0.000000    0.000000

      * MP2 total energy                      = -151.289018168880716
      * CCSD total energy                     = -151.309922974163527
      * CCSD(T) total energy                     = -151.322246563265566
*** Psi4 exiting successfully. Buy a developer a beer!
