                               Psi4 1.3.2 release

  ==> Input File <==

--------------------------------------------------------------------------
memory 4 GB

molecule  {
0 3
O    0.000000000000    0.000000000000   -1.632426586646
H    0.000000000000   -0.754273173400   -1.037501237319
H   -0.000000000000    0.754273173400   -1.037501237319
O    0.000000000000    0.000000000000    1.763170606581
}
set {
basis aug-cc-pvtz
reference uhf
e_convergence 10
scf_type pk
freeze_core true
}

set ccenergy {
e_convergence 10
r_convergence 10
}

e = energy('ccsd(t)')

print_out('Stephenergy {}'.format(e))

--------------------------------------------------------------------------

    Molecular point group: c2v

    Geometry (in Angstrom), charge = 0, multiplicity = 3:

       Center              X                  Y                   Z               Mass
    ------------   -----------------  -----------------  -----------------  -----------------
         O            0.000000000000     0.000000000000    -1.632426586646    15.994914619570
         H            0.000000000000    -0.754273173400    -1.037501237319     1.007825032230
         H           -0.000000000000     0.754273173400    -1.037501237319     1.007825032230
         O            0.000000000000     0.000000000000     1.763170606581    15.994914619570

  Charge       = 0
  Multiplicity = 3
  Basis Set: AUG-CC-PVTZ
    Blend: AUG-CC-PVTZ

    Orbital Energies [Eh]
    ---------------------

    Alpha Occupied:

       1A1   -20.729141     2A1   -20.562618     3A1    -1.438166
       4A1    -1.347236     1B2    -0.729588     1B1    -0.729172
       2B2    -0.708716     5A1    -0.632661     6A1    -0.579836
       2B1    -0.505246

    Alpha Virtual:

       7A1     0.035549     3B2     0.048540     3B1     0.132014
       8A1     0.134537     9A1     0.148445     4B2     0.158175
       4B1     0.181443     5B2     0.184960    10A1     0.189414
      11A1     0.251421     6B2     0.258217     1A2     0.265985
      12A1     0.273543     5B1     0.320405    13A1     0.368942
       7B2     0.382692    14A1     0.454260     8B2     0.472159
       2A2     0.609221     9B2     0.617343    15A1     0.619135
      16A1     0.620407     6B1     0.641133    17A1     0.717727
       3A2     0.730968    10B2     0.736665     7B1     0.743318
      18A1     0.801010    19A1     0.839250     8B1     0.839847
      11B2     0.853461     9B1     0.915630    20A1     0.930214
       4A2     0.934926    12B2     0.942028    21A1     0.959044
      10B1     0.963647    13B2     0.966060    22A1     1.049532
      14B2     1.054943    11B1     1.125758     5A2     1.186327
      23A1     1.187363    15B2     1.260741    24A1     1.264120
      16B2     1.274870    25A1     1.350720     6A2     1.511768
      12B1     1.592550    26A1     1.640537    27A1     1.828171
      17B2     1.830542    18B2     1.972554    13B1     1.978439
      19B2     1.991801    28A1     2.005371     7A2     2.011730
      14B1     2.026855    29A1     2.036988     8A2     2.041249
      20B2     2.084003    30A1     2.087538    15B1     2.122061
      31A1     2.150154    21B2     2.266994    16B1     2.280542
       9A2     2.330610    32A1     2.344329    33A1     2.403729
      34A1     2.488628    22B2     2.494086    17B1     2.509370
      35A1     2.575858    23B2     2.689491    18B1     2.719106
      36A1     2.821144    10A2     2.889522    24B2     2.905818
      25B2     3.668510    37A1     3.755250    11A2     4.032045
      19B1     4.050969    26B2     4.086769    20B1     4.103648
      38A1     4.154580    27B2     4.278749    21B1     4.285332
      39A1     4.370524    12A2     4.383982    40A1     4.411405
      22B1     4.417587    28B2     4.530533    41A1     4.750728
      29B2     4.855063    13A2     5.152865    30B2     5.164942
      31B2     5.254571    42A1     5.374579    23B1     5.530543
      43A1     5.678893    44A1     6.200501    24B1     6.314988
      32B2     6.315918    14A2     6.370885    45A1     6.376617
      25B1     6.403041    33B2     6.453953    46A1     6.483442
      34B2     6.529137    26B1     6.740033    15A2     6.819373
      47A1     6.820857    27B1     6.928842    48A1     6.930626
      35B2     6.959165    49A1     7.034279    28B1     7.137324
      29B1     7.261761    16A2     7.320174    36B2     7.350270
      50A1     7.358218    17A2     7.359089    51A1     7.552100
      52A1     7.902707    37B2     7.939728    53A1     8.543458
      38B2     8.817411    54A1    15.761875

    Beta Occupied:

       1A1   -20.650581     2A1   -20.562659     3A1    -1.347424
       4A1    -1.095883     1B2    -0.708875     5A1    -0.584358
       6A1    -0.538562     1B1    -0.505235

    Beta Virtual:

       2B2     0.035236     7A1     0.036678     2B1     0.049766
       3B2     0.069603     8A1     0.140681     9A1     0.150984
       3B1     0.160431     4B2     0.180723    10A1     0.189737
       5B2     0.222381     4B1     0.225438    11A1     0.260447
       6B2     0.263444     1A2     0.266317    12A1     0.275103
       5B1     0.321098    13A1     0.372335     7B2     0.387983
      14A1     0.455429     8B2     0.472666     9B2     0.619716
      15A1     0.621828     2A2     0.641407    16A1     0.651900
       6B1     0.653065    17A1     0.719043     3A2     0.732375
       7B1     0.745496    10B2     0.748165    18A1     0.810574
      19A1     0.850998     8B1     0.912036     9B1     0.931348
      20A1     0.935737     4A2     0.936426    11B2     0.940706
      12B2     0.945215    21A1     0.960013    13B2     1.011612
      10B1     1.026108    22A1     1.050146    14B2     1.057842
      11B1     1.131353     5A2     1.187060    23A1     1.191448
      15B2     1.270882    16B2     1.281695    24A1     1.285622
      25A1     1.404980     6A2     1.511890    12B1     1.592668
      26A1     1.653721    27A1     1.829384    17B2     1.831788
      18B2     1.981201    13B1     2.016503    19B2     2.022039
      28A1     2.030631     7A2     2.043184    14B1     2.047497
      29A1     2.100515    20B2     2.129041    30A1     2.159970
       8A2     2.182642    15B1     2.190401    31A1     2.197447
      16B1     2.285227    21B2     2.311523     9A2     2.333729
      32A1     2.363546    33A1     2.415512    34A1     2.492850
      22B2     2.499022    17B1     2.514085    35A1     2.578581
      23B2     2.689671    18B1     2.719200    36A1     2.821497
      10A2     2.889547    24B2     2.907841    25B2     3.668556
      37A1     3.755369    11A2     4.032137    19B1     4.102769
      38A1     4.169122    20B1     4.223945    26B2     4.242819
      21B1     4.285366    27B2     4.292715    12A2     4.384032
      39A1     4.389897    22B1     4.417803    40A1     4.425018
      28B2     4.530790    41A1     4.750912    29B2     4.855177
      13A2     5.152884    30B2     5.164948    31B2     5.254598
      42A1     5.375037    23B1     5.530548    43A1     5.679232
      44A1     6.202434    24B1     6.423827    32B2     6.424603
      14A2     6.447531    45A1     6.451466    25B1     6.458220
      33B2     6.497267    46A1     6.532090    34B2     6.542468
      26B1     6.746625    47A1     6.930915    15A2     7.008361
      48A1     7.010344    27B1     7.036017    35B2     7.068243
      49A1     7.114816    28B1     7.137698    29B1     7.261719
      16A2     7.320221    36B2     7.352195    50A1     7.359002
      17A2     7.359149    51A1     7.552896    52A1     7.902941
      37B2     7.939710    53A1     8.628280    38B2     8.817346
      54A1    15.761869

    Final Occupation by Irrep:
             A1    A2    B1    B2
    DOCC [     6,    0,    1,    1 ]
    SOCC [     0,    0,    1,    1 ]

  @UHF Final Energy:  -150.87362977521923

   => Energetics <=

    Nuclear Repulsion Energy =             22.0573933520725092
    One-Electron Energy =                -251.9060920863698811
    Two-Electron Energy =                  78.9750689590781292
    Total Energy =                       -150.8736297752192570

  UHF NO Occupations:
  HONO-2 :    6 A1 1.9970748
  HONO-1 :    2 B1 1.0000000
  HONO-0 :    2 B2 1.0000000
  LUNO+0 :    7 A1 0.0029252
  LUNO+1 :    8 A1 0.0016828
  LUNO+2 :    9 A1 0.0000024
  LUNO+3 :   10 A1 0.0000005

Computation Completed

Properties will be evaluated at   0.000000,   0.000000,   0.000000 [a0]

Properties computed using the SCF density matrix

  Nuclear Dipole Moment: [e a0]
     X:     0.0000      Y:     0.0000      Z:    -1.9446

  Electronic Dipole Moment: [e a0]
     X:     0.0000      Y:     0.0000      Z:     2.7776

  Dipole Moment: [e a0]
     X:     0.0000      Y:     0.0000      Z:     0.8330     Total:     0.8330

  Dipole Moment: [D]
     X:     0.0000      Y:     0.0000      Z:     2.1173     Total:     2.1173

*** tstop() called on c1-11.compute.lan at Wed Mar 10 09:42:00 2021
Module time:
	user time   =      45.31 seconds =       0.76 minutes
	system time =       2.75 seconds =       0.05 minutes
	total time  =          6 seconds =       0.10 minutes
Total time:
	user time   =      45.31 seconds =       0.76 minutes
	system time =       2.75 seconds =       0.05 minutes
	total time  =          6 seconds =       0.10 minutes
 MINTS: Wrapper to libmints.
   by Justin Turney

   Calculation information:
      Number of threads:                12
      Number of atoms:                   4
      Number of AO shells:              46
      Number of SO shells:              37
      Number of primitives:             82
      Number of atomic orbitals:       160
      Number of basis functions:       138

      Number of irreps:                  4
      Integral cutoff                 0.00e+00
      Number of functions per irrep: [  54   17   29   38 ]

 OEINTS: Overlap, kinetic, potential, dipole, and quadrupole integrals
         stored in file 35.

      Computing two-electron integrals...done
      Computed 11532688 non-zero two-electron integrals.
        Stored in file 33.

*** tstart() called on c1-11.compute.lan
*** at Wed Mar 10 09:42:03 2021

	Wfn Parameters:
	--------------------
	Wavefunction         = CCSD_T
	Number of irreps     = 4
	Number of MOs        = 138
	Number of active MOs = 136
	AO-Basis             = NONE
	Semicanonical        = false
	Reference            = UHF
	Print Level          = 1

	IRREP	# MOs	# FZDC	# DOCC	# SOCC	# VIRT	# FZVR
	-----	-----	------	------	------	------	------
	 A1	   54	    2	    4	    0	    48	    0
	 A2	   17	    0	    0	    0	    17	    0
	 B1	   29	    0	    1	    1	    27	    0
	 B2	   38	    0	    1	    1	    36	    0
	Transforming integrals...
	IWL integrals will be deleted.
	(OO|OO)...
	Presorting SO-basis two-electron integrals.
	Sorting File: SO Ints (nn|nn) nbuckets = 1
	Transforming the one-electron integrals and constructing Fock matrices
	Starting AA/AB first half-transformation.
	Sorting AA/AB half-transformed integrals.
	Starting BB first half-transformation.
	Sorting BB half-transformed integrals.
	First half integral transformation complete.
	Starting AA second half-transformation.
	Starting AB second half-transformation.
	Starting BB second half-transformation.
	Two-electron integral transformation complete.
	(OO|OV)...
	Starting AA second half-transformation.
	Starting AB second half-transformation.
	Starting BB second half-transformation.
	Two-electron integral transformation complete.
	(OO|VV)...
	Starting AA second half-transformation.
	Starting AB second half-transformation.
	Starting BB second half-transformation.
	Two-electron integral transformation complete.
	(OV|OO)...
	Starting AA/AB first half-transformation.
	Sorting AA/AB half-transformed integrals.
	Starting BB first half-transformation.
	Sorting BB half-transformed integrals.
	First half integral transformation complete.
	Starting AA second half-transformation.
	Starting AB second half-transformation.
	Starting BB second half-transformation.
	Two-electron integral transformation complete.
	(OV|OV)...
	Starting AA second half-transformation.
	Starting AB second half-transformation.
	Starting BB second half-transformation.
	Two-electron integral transformation complete.
	(OV|VV)...
	Starting AA second half-transformation.
	Starting AB second half-transformation.
	Starting BB second half-transformation.
	Two-electron integral transformation complete.
	(VV|OO)...
	Starting AA/AB first half-transformation.
	Sorting AA/AB half-transformed integrals.
	Starting BB first half-transformation.
	Sorting BB half-transformed integrals.
	First half integral transformation complete.
	Starting AA second half-transformation.
	Starting AB second half-transformation.
	Starting BB second half-transformation.
	Two-electron integral transformation complete.
	(VV|OV)...
	Starting AA second half-transformation.
	Starting AB second half-transformation.
	Starting BB second half-transformation.
	Two-electron integral transformation complete.
	(VV|VV)...
	Starting AA second half-transformation.
	Starting AB second half-transformation.
	Starting BB second half-transformation.
	Two-electron integral transformation complete.
	Frozen core energy     =   -125.50776446834465

	Size of irrep 0 of <AB|CD> integrals:      5.040 (MW) /     40.320 (MB)
	Size of irrep 1 of <AB|CD> integrals:      3.197 (MW) /     25.576 (MB)
	Size of irrep 2 of <AB|CD> integrals:      3.640 (MW) /     29.124 (MB)
	Size of irrep 3 of <AB|CD> integrals:      4.783 (MW) /     38.264 (MB)
	Total:                                    16.660 (MW) /    133.283 (MB)

	Size of irrep 0 of <ab|cd> integrals:      5.327 (MW) /     42.615 (MB)
	Size of irrep 1 of <ab|cd> integrals:      3.430 (MW) /     27.439 (MB)
	Size of irrep 2 of <ab|cd> integrals:      3.893 (MW) /     31.142 (MB)
	Size of irrep 3 of <ab|cd> integrals:      5.072 (MW) /     40.572 (MB)
	Total:                                    17.721 (MW) /    141.768 (MB)

	Size of irrep 0 of <Ab|Cd> integrals:     21.912 (MW) /    175.294 (MB)
	Size of irrep 1 of <Ab|Cd> integrals:     13.242 (MW) /    105.939 (MB)
	Size of irrep 2 of <Ab|Cd> integrals:     15.062 (MW) /    120.497 (MB)
	Size of irrep 3 of <Ab|Cd> integrals:     19.705 (MW) /    157.638 (MB)
	Total:                                    69.921 (MW) /    559.368 (MB)

	Size of irrep 0 of <IA|BC> integrals:      1.469 (MW) /     11.748 (MB)
	Size of irrep 1 of <IA|BC> integrals:      0.694 (MW) /      5.550 (MB)
	Size of irrep 2 of <IA|BC> integrals:      0.908 (MW) /      7.266 (MB)
	Size of irrep 3 of <IA|BC> integrals:      1.198 (MW) /      9.588 (MB)
	Total:                                     4.269 (MW) /     34.152 (MB)

	Size of irrep 0 of <ia|bc> integrals:      1.220 (MW) /      9.758 (MB)
	Size of irrep 1 of <ia|bc> integrals:      0.493 (MW) /      3.941 (MB)
	Size of irrep 2 of <ia|bc> integrals:      0.698 (MW) /      5.588 (MB)
	Size of irrep 3 of <ia|bc> integrals:      0.959 (MW) /      7.675 (MB)
	Total:                                     3.370 (MW) /     26.961 (MB)

	Size of irrep 0 of <Ia|Bc> integrals:      1.507 (MW) /     12.058 (MB)
	Size of irrep 1 of <Ia|Bc> integrals:      0.721 (MW) /      5.764 (MB)
	Size of irrep 2 of <Ia|Bc> integrals:      0.939 (MW) /      7.514 (MB)
	Size of irrep 3 of <Ia|Bc> integrals:      1.234 (MW) /      9.872 (MB)
	Total:                                     4.401 (MW) /     35.208 (MB)

	Size of irrep 0 of <iA|bC> integrals:      1.194 (MW) /      9.549 (MB)
	Size of irrep 1 of <iA|bC> integrals:      0.477 (MW) /      3.814 (MB)
	Size of irrep 2 of <iA|bC> integrals:      0.671 (MW) /      5.371 (MB)
	Size of irrep 3 of <iA|bC> integrals:      0.928 (MW) /      7.422 (MB)
	Total:                                     3.270 (MW) /     26.156 (MB)

	Size of irrep 0 of tIjAb amplitudes:       0.094 (MW) /      0.749 (MB)
	Size of irrep 1 of tIjAb amplitudes:       0.015 (MW) /      0.116 (MB)
	Size of irrep 2 of tIjAb amplitudes:       0.047 (MW) /      0.373 (MB)
	Size of irrep 3 of tIjAb amplitudes:       0.053 (MW) /      0.426 (MB)
	Total:                                     0.208 (MW) /      1.664 (MB)

	Nuclear Rep. energy          =     22.05739335207251
	SCF energy                   =   -150.87362977521923
	One-electron energy          =    -83.39556106212260
	Two-electron (AA) energy     =      9.97000504484416
	Two-electron (BB) energy     =      5.30573976810939
	Two-electron (AB) energy     =     20.69655759022042
	Two-electron energy          =     35.97230240317396
	Reference energy             =   -150.87362977522076

*** tstop() called on c1-11.compute.lan at Wed Mar 10 09:42:30 2021
Module time:
	user time   =     123.80 seconds =       2.06 minutes
	system time =      18.13 seconds =       0.30 minutes
	total time  =         27 seconds =       0.45 minutes
Total time:
	user time   =     174.32 seconds =       2.91 minutes
	system time =      21.39 seconds =       0.36 minutes
	total time  =         36 seconds =       0.60 minutes
            **************************
            *                        *
            *        CCENERGY        *
            *                        *
            **************************

    Nuclear Rep. energy (wfn)     =   22.057393352072509
    SCF energy          (wfn)     = -150.873629775219229
    Reference energy    (file100) = -150.873629775220763

    Input parameters:
    -----------------
    Wave function   =     CCSD_T
    Reference wfn   =     UHF
    Brueckner       =     No
    Memory (Mbytes) =     4000.0
    Maxiter         =     50
    R_Convergence   =     1.0e-10
    E_Convergence   =     1.0e-10
    Restart         =     Yes
    DIIS            =     Yes
    AO Basis        =     NONE
    ABCD            =     NEW
    Cache Level     =     2
    Cache Type      =     LRU
    Print Level     =     1
    Num. of threads =     12
    # Amps to Print =     10
    Print MP2 Amps? =     No
    Analyze T2 Amps =     No
    Print Pair Ener =     No
    Local CC        =     No
    SCS-MP2         =     False
    SCSN-MP2        =     False
    SCS-CCSD        =     False

MP2 correlation energy -0.4156745373278786
                Solving CC Amplitude Equations
                ------------------------------
  Iter             Energy              RMS        T1Diag      D1Diag    New D1Diag    D2Diag
  ----     ---------------------    ---------   ----------  ----------  ----------   --------
     0        -0.415674537327879    0.000e+00    0.000000    0.000000    0.000000    0.000000
     1        -0.426555999696318    5.633e-02    0.010354    0.000000    0.000000    0.000000
     2        -0.434638094358005    1.677e-02    0.010860    0.000000    0.000000    0.000000
     3        -0.436731815698580    8.402e-03    0.012675    0.000000    0.000000    0.000000
     4        -0.436607875189366    2.490e-03    0.013020    0.000000    0.000000    0.000000
     5        -0.436595589365732    1.261e-03    0.013163    0.000000    0.000000    0.000000
     6        -0.436621103394736    4.983e-04    0.013177    0.000000    0.000000    0.000000
     7        -0.436625305470388    2.270e-04    0.013167    0.000000    0.000000    0.000000
     8        -0.436626030822810    6.834e-05    0.013161    0.000000    0.000000    0.000000
     9        -0.436627253957325    2.851e-05    0.013160    0.000000    0.000000    0.000000
    10        -0.436626067694354    1.097e-05    0.013160    0.000000    0.000000    0.000000
    11        -0.436626175329581    5.592e-06    0.013160    0.000000    0.000000    0.000000
    12        -0.436626135671416    2.764e-06    0.013161    0.000000    0.000000    0.000000
    13        -0.436626131274292    1.467e-06    0.013161    0.000000    0.000000    0.000000
    14        -0.436626160823273    6.688e-07    0.013161    0.000000    0.000000    0.000000
    15        -0.436626159663774    1.742e-07    0.013161    0.000000    0.000000    0.000000
    16        -0.436626159550781    1.065e-07    0.013161    0.000000    0.000000    0.000000
    17        -0.436626160373763    2.999e-08    0.013161    0.000000    0.000000    0.000000
    18        -0.436626159962925    1.351e-08    0.013161    0.000000    0.000000    0.000000

      * MP2 total energy                      = -151.289304312548637
      * CCSD total energy                     = -151.310255934932798
      * CCSD(T) total energy                     = -151.322469801062681
*** Psi4 exiting successfully. Buy a developer a beer!
