                               Psi4 1.3.2 release

  ==> Input File <==

--------------------------------------------------------------------------
memory 4 GB

molecule  {
0 3
O   -1.504262362686   -0.001191472503    0.000000000000
H   -0.551820040380    0.156574191117    0.000000000000
H   -1.894722159053    0.877112893029    0.000000000000
O    1.658416762984   -0.063940211140    0.000000000000
}
set {
basis aug-cc-pvtz
reference uhf
e_convergence 10
scf_type pk
freeze_core true
}

set ccenergy {
e_convergence 10
r_convergence 10
}

e = energy('ccsd(t)')

print_out('Stephenergy {}'.format(e))

--------------------------------------------------------------------------

    Molecular point group: cs

    Geometry (in Angstrom), charge = 0, multiplicity = 3:

       Center              X                  Y                   Z               Mass
    ------------   -----------------  -----------------  -----------------  -----------------
         O           -1.504262362686    -0.001191472503     0.000000000000    15.994914619570
         H           -0.551820040380     0.156574191117     0.000000000000     1.007825032230
         H           -1.894722159053     0.877112893029     0.000000000000     1.007825032230
         O            1.658416762984    -0.063940211140     0.000000000000    15.994914619570

  Charge       = 0
  Multiplicity = 3
  Basis Set: AUG-CC-PVTZ
    Blend: AUG-CC-PVTZ

    Orbital Energies [Eh]
    ---------------------

    Alpha Occupied:

       1Ap   -20.733169     2Ap   -20.558883     3Ap    -1.442502
       4Ap    -1.342244     5Ap    -0.733262     1App   -0.732890
       6Ap    -0.709713     7Ap    -0.634533     8Ap    -0.574564
       2App   -0.501738

    Alpha Virtual:

       9Ap     0.034217    10Ap     0.053468    11Ap     0.128179
       3App    0.132929    12Ap     0.148126    13Ap     0.160765
      14Ap     0.183953     4App    0.186864    15Ap     0.214135
      16Ap     0.241888    17Ap     0.264331     5App    0.286507
      18Ap     0.303959     6App    0.320610    19Ap     0.363960
      20Ap     0.406305    21Ap     0.460560    22Ap     0.568716
       7App    0.602547    23Ap     0.608599    24Ap     0.626981
      25Ap     0.681652     8App    0.709508    26Ap     0.714738
       9App    0.736720    10App    0.748912    27Ap     0.750671
      28Ap     0.811620    11App    0.825999    29Ap     0.836735
      12App    0.890820    30Ap     0.892096    31Ap     0.922816
      32Ap     0.945153    13App    0.947840    33Ap     0.951278
      14App    0.971835    34Ap     0.978537    35Ap     1.043411
      36Ap     1.135774    15App    1.153578    37Ap     1.169550
      38Ap     1.184908    39Ap     1.261419    16App    1.295114
      40Ap     1.316434    17App    1.527200    41Ap     1.587497
      18App    1.597461    42Ap     1.716351    43Ap     1.809236
      44Ap     1.842305    45Ap     1.977376    19App    1.977654
      46Ap     1.978253    20App    2.013162    47Ap     2.017922
      21App    2.048578    48Ap     2.061228    22App    2.122966
      49Ap     2.153079    50Ap     2.175831    23App    2.212926
      24App    2.303036    51Ap     2.310129    52Ap     2.339293
      53Ap     2.414912    25App    2.441132    54Ap     2.460083
      55Ap     2.490438    26App    2.526588    56Ap     2.628636
      57Ap     2.707743    27App    2.727816    58Ap     2.737225
      59Ap     2.860326    60Ap     2.932162    28App    2.943367
      61Ap     3.695841    62Ap     3.890134    29App    4.035035
      30App    4.062690    63Ap     4.074319    31App    4.176794
      64Ap     4.208086    65Ap     4.263316    32App    4.302239
      33App    4.390565    66Ap     4.408852    34App    4.428620
      67Ap     4.445116    68Ap     4.601433    69Ap     4.778022
      70Ap     4.955513    35App    5.152496    71Ap     5.167319
      72Ap     5.297533    73Ap     5.384887    36App    5.521584
      74Ap     5.689197    75Ap     6.186434    37App    6.312275
      76Ap     6.312306    38App    6.375517    77Ap     6.378215
      39App    6.518716    78Ap     6.520526    79Ap     6.559768
      80Ap     6.637431    40App    6.735508    81Ap     6.814348
      41App    6.819920    82Ap     6.918914    42App    6.936713
      83Ap     6.961146    84Ap     7.050919    43App    7.147090
      44App    7.271441    45App    7.322449    85Ap     7.324781
      86Ap     7.362114    46App    7.435473    87Ap     7.644131
      88Ap     7.942729    89Ap     7.958109    90Ap     8.803716
      91Ap     9.518249    92Ap    16.259001

    Beta Occupied:

       1Ap   -20.654381     2Ap   -20.559015     3Ap    -1.342824
       4Ap    -1.100034     5Ap    -0.708880     6Ap    -0.579670
       7Ap    -0.541203     1App   -0.501784

    Beta Virtual:

       8Ap     0.034372     2App    0.049302     9Ap     0.049554
      10Ap     0.055168    11Ap     0.143845    12Ap     0.152955
       3App    0.161280    13Ap     0.178081    14Ap     0.207796
      15Ap     0.225508     4App    0.227158    16Ap     0.250586
      17Ap     0.265570     5App    0.286715    18Ap     0.306099
       6App    0.324367    19Ap     0.367856    20Ap     0.417219
      21Ap     0.461813    22Ap     0.572294    23Ap     0.627718
       7App    0.634938    24Ap     0.640386    25Ap     0.686449
      26Ap     0.715404     8App    0.721540     9App    0.739861
      10App    0.750659    27Ap     0.767118    28Ap     0.817998
      29Ap     0.867835    11App    0.869058    30Ap     0.919905
      12App    0.941811    31Ap     0.941898    13App    0.949908
      32Ap     0.952624    33Ap     0.970097    34Ap     1.017533
      14App    1.020212    35Ap     1.045607    15App    1.156722
      36Ap     1.163798    37Ap     1.172900    38Ap     1.215759
      39Ap     1.264636    16App    1.305721    40Ap     1.325100
      17App    1.527934    41Ap     1.589718    18App    1.598887
      42Ap     1.742630    43Ap     1.814549    44Ap     1.853129
      45Ap     1.986068    46Ap     2.015616    19App    2.015628
      20App    2.053886    47Ap     2.065899    21App    2.171322
      48Ap     2.176153    22App    2.179576    49Ap     2.193913
      50Ap     2.244715    23App    2.249930    24App    2.306440
      51Ap     2.315628    52Ap     2.361893    53Ap     2.419246
      25App    2.443851    54Ap     2.460919    55Ap     2.496767
      26App    2.535072    56Ap     2.635871    57Ap     2.724751
      27App    2.729124    58Ap     2.740752    59Ap     2.862155
      60Ap     2.936534    28App    2.944001    61Ap     3.696543
      62Ap     3.892517    29App    4.037893    30App    4.145445
      63Ap     4.193727    64Ap     4.242253    31App    4.262487
      65Ap     4.275383    32App    4.302292    33App    4.390634
      66Ap     4.412380    34App    4.429284    67Ap     4.489534
      68Ap     4.603968    69Ap     4.779696    70Ap     4.957539
      35App    5.152484    71Ap     5.167631    72Ap     5.297777
      73Ap     5.386086    36App    5.521644    74Ap     5.689537
      75Ap     6.187703    76Ap     6.421128    37App    6.421132
      38App    6.450718    77Ap     6.453434    78Ap     6.535519
      39App    6.572563    79Ap     6.600646    80Ap     6.682297
      40App    6.741437    81Ap     6.920717    41App    7.005048
      82Ap     7.006589    42App    7.045748    83Ap     7.068224
      84Ap     7.130701    43App    7.149783    44App    7.271711
      45App    7.323134    85Ap     7.325109    86Ap     7.362857
      46App    7.435889    87Ap     7.644968    88Ap     7.943451
      89Ap     7.958731    90Ap     8.805265    91Ap     9.593281
      92Ap    16.259269

    Final Occupation by Irrep:
             Ap   App
    DOCC [     7,    1 ]
    SOCC [     1,    1 ]

  @UHF Final Energy:  -150.87435876524796

   => Energetics <=

    Nuclear Repulsion Energy =             22.9006343029936659
    One-Electron Energy =                -253.5986963747025982
    Two-Electron Energy =                  79.8237033064609562
    Total Energy =                       -150.8743587652479619

  UHF NO Occupations:
  HONO-2 :    7 Ap 1.9970277
  HONO-1 :    2App 1.0000000
  HONO-0 :    8 Ap 1.0000000
  LUNO+0 :    9 Ap 0.0029723
  LUNO+1 :   10 Ap 0.0017167
  LUNO+2 :   11 Ap 0.0000024
  LUNO+3 :   12 Ap 0.0000018

Computation Completed

Properties will be evaluated at   0.000000,   0.000000,   0.000000 [a0]

Properties computed using the SCF density matrix

  Nuclear Dipole Moment: [e a0]
     X:    -2.2928      Y:     0.9687      Z:     0.0000

  Electronic Dipole Moment: [e a0]
     X:     2.7571      Y:    -0.2940      Z:     0.0000

  Dipole Moment: [e a0]
     X:     0.4643      Y:     0.6747      Z:     0.0000     Total:     0.8190

  Dipole Moment: [D]
     X:     1.1800      Y:     1.7150      Z:     0.0000     Total:     2.0817

*** tstop() called on d1-14.compute.lan at Tue Mar  9 15:46:40 2021
Module time:
	user time   =      56.47 seconds =       0.94 minutes
	system time =       3.73 seconds =       0.06 minutes
	total time  =          7 seconds =       0.12 minutes
Total time:
	user time   =      56.47 seconds =       0.94 minutes
	system time =       3.73 seconds =       0.06 minutes
	total time  =          7 seconds =       0.12 minutes
 MINTS: Wrapper to libmints.
   by Justin Turney

   Calculation information:
      Number of threads:                12
      Number of atoms:                   4
      Number of AO shells:              46
      Number of SO shells:              46
      Number of primitives:             82
      Number of atomic orbitals:       160
      Number of basis functions:       138

      Number of irreps:                  2
      Integral cutoff                 0.00e+00
      Number of functions per irrep: [  92   46 ]

 OEINTS: Overlap, kinetic, potential, dipole, and quadrupole integrals
         stored in file 35.

      Computing two-electron integrals...done
      Computed 22928506 non-zero two-electron integrals.
        Stored in file 33.

*** tstart() called on d1-14.compute.lan
*** at Tue Mar  9 15:46:44 2021

	Wfn Parameters:
	--------------------
	Wavefunction         = CCSD_T
	Number of irreps     = 2
	Number of MOs        = 138
	Number of active MOs = 136
	AO-Basis             = NONE
	Semicanonical        = false
	Reference            = UHF
	Print Level          = 1

	IRREP	# MOs	# FZDC	# DOCC	# SOCC	# VIRT	# FZVR
	-----	-----	------	------	------	------	------
	 Ap	   92	    2	    5	    1	    84	    0
	 App	   46	    0	    1	    1	    44	    0
	Transforming integrals...
	IWL integrals will be deleted.
	(OO|OO)...
	Presorting SO-basis two-electron integrals.
	Sorting File: SO Ints (nn|nn) nbuckets = 1
	Transforming the one-electron integrals and constructing Fock matrices
	Starting AA/AB first half-transformation.
	Sorting AA/AB half-transformed integrals.
	Starting BB first half-transformation.
	Sorting BB half-transformed integrals.
	First half integral transformation complete.
	Starting AA second half-transformation.
	Starting AB second half-transformation.
	Starting BB second half-transformation.
	Two-electron integral transformation complete.
	(OO|OV)...
	Starting AA second half-transformation.
	Starting AB second half-transformation.
	Starting BB second half-transformation.
	Two-electron integral transformation complete.
	(OO|VV)...
	Starting AA second half-transformation.
	Starting AB second half-transformation.
	Starting BB second half-transformation.
	Two-electron integral transformation complete.
	(OV|OO)...
	Starting AA/AB first half-transformation.
	Sorting AA/AB half-transformed integrals.
	Starting BB first half-transformation.
	Sorting BB half-transformed integrals.
	First half integral transformation complete.
	Starting AA second half-transformation.
	Starting AB second half-transformation.
	Starting BB second half-transformation.
	Two-electron integral transformation complete.
	(OV|OV)...
	Starting AA second half-transformation.
	Starting AB second half-transformation.
	Starting BB second half-transformation.
	Two-electron integral transformation complete.
	(OV|VV)...
	Starting AA second half-transformation.
	Starting AB second half-transformation.
	Starting BB second half-transformation.
	Two-electron integral transformation complete.
	(VV|OO)...
	Starting AA/AB first half-transformation.
	Sorting AA/AB half-transformed integrals.
	Starting BB first half-transformation.
	Sorting BB half-transformed integrals.
	First half integral transformation complete.
	Starting AA second half-transformation.
	Starting AB second half-transformation.
	Starting BB second half-transformation.
	Two-electron integral transformation complete.
	(VV|OV)...
	Starting AA second half-transformation.
	Starting AB second half-transformation.
	Starting BB second half-transformation.
	Two-electron integral transformation complete.
	(VV|VV)...
	Starting AA second half-transformation.
	Starting AB second half-transformation.
	Starting BB second half-transformation.
	Two-electron integral transformation complete.
	Frozen core energy     =   -125.85674505918877

	Size of irrep 0 of <AB|CD> integrals:     19.643 (MW) /    157.141 (MB)
	Size of irrep 1 of <AB|CD> integrals:     13.660 (MW) /    109.283 (MB)
	Total:                                    33.303 (MW) /    266.424 (MB)

	Size of irrep 0 of <ab|cd> integrals:     20.794 (MW) /    166.349 (MB)
	Size of irrep 1 of <ab|cd> integrals:     14.631 (MW) /    117.045 (MB)
	Total:                                    35.424 (MW) /    283.394 (MB)

	Size of irrep 0 of <Ab|Cd> integrals:     83.174 (MW) /    665.395 (MB)
	Size of irrep 1 of <Ab|Cd> integrals:     56.550 (MW) /    452.403 (MB)
	Total:                                   139.725 (MW) /   1117.798 (MB)

	Size of irrep 0 of <IA|BC> integrals:      5.323 (MW) /     42.586 (MB)
	Size of irrep 1 of <IA|BC> integrals:      3.193 (MW) /     25.547 (MB)
	Total:                                     8.517 (MW) /     68.133 (MB)

	Size of irrep 0 of <ia|bc> integrals:      4.348 (MW) /     34.780 (MB)
	Size of irrep 1 of <ia|bc> integrals:      2.372 (MW) /     18.972 (MB)
	Total:                                     6.719 (MW) /     53.752 (MB)

	Size of irrep 0 of <Ia|Bc> integrals:      5.472 (MW) /     43.776 (MB)
	Size of irrep 1 of <Ia|Bc> integrals:      3.309 (MW) /     26.470 (MB)
	Total:                                     8.781 (MW) /     70.246 (MB)

	Size of irrep 0 of <iA|bC> integrals:      4.232 (MW) /     33.853 (MB)
	Size of irrep 1 of <iA|bC> integrals:      2.286 (MW) /     18.289 (MB)
	Total:                                     6.518 (MW) /     52.142 (MB)

	Size of irrep 0 of tIjAb amplitudes:       0.292 (MW) /      2.335 (MB)
	Size of irrep 1 of tIjAb amplitudes:       0.120 (MW) /      0.963 (MB)
	Total:                                     0.412 (MW) /      3.297 (MB)

	Nuclear Rep. energy          =     22.90063430299367
	SCF energy                   =   -150.87435876524796
	One-electron energy          =    -84.39065468301953
	Two-electron (AA) energy     =     10.13607867733797
	Two-electron (BB) energy     =      5.39152698589877
	Two-electron (AB) energy     =     20.94480101072934
	Two-electron energy          =     36.47240667396609
	Reference energy             =   -150.87435876524856

*** tstop() called on d1-14.compute.lan at Tue Mar  9 15:48:00 2021
Module time:
	user time   =     411.96 seconds =       6.87 minutes
	system time =      73.71 seconds =       1.23 minutes
	total time  =         76 seconds =       1.27 minutes
Total time:
	user time   =     474.70 seconds =       7.91 minutes
	system time =      78.41 seconds =       1.31 minutes
	total time  =         87 seconds =       1.45 minutes
            **************************
            *                        *
            *        CCENERGY        *
            *                        *
            **************************

    Nuclear Rep. energy (wfn)     =   22.900634302993666
    SCF energy          (wfn)     = -150.874358765247962
    Reference energy    (file100) = -150.874358765248559

    Input parameters:
    -----------------
    Wave function   =     CCSD_T
    Reference wfn   =     UHF
    Brueckner       =     No
    Memory (Mbytes) =     4000.0
    Maxiter         =     50
    R_Convergence   =     1.0e-10
    E_Convergence   =     1.0e-10
    Restart         =     Yes
    DIIS            =     Yes
    AO Basis        =     NONE
    ABCD            =     NEW
    Cache Level     =     2
    Cache Type      =     LRU
    Print Level     =     1
    Num. of threads =     12
    # Amps to Print =     10
    Print MP2 Amps? =     No
    Analyze T2 Amps =     No
    Print Pair Ener =     No
    Local CC        =     No
    SCS-MP2         =     False
    SCSN-MP2        =     False
    SCS-CCSD        =     False

MP2 correlation energy -0.4167206654126134
                Solving CC Amplitude Equations
                ------------------------------
  Iter             Energy              RMS        T1Diag      D1Diag    New D1Diag    D2Diag
  ----     ---------------------    ---------   ----------  ----------  ----------   --------
     0        -0.416720665412613    0.000e+00    0.000000    0.000000    0.000000    0.000000
     1        -0.427408057508639    5.697e-02    0.010571    0.000000    0.000000    0.000000
     2        -0.435508836870697    1.692e-02    0.011047    0.000000    0.000000    0.000000
     3        -0.437636240196157    8.593e-03    0.012923    0.000000    0.000000    0.000000
     4        -0.437510343576924    2.538e-03    0.013291    0.000000    0.000000    0.000000
     5        -0.437495804070154    1.323e-03    0.013448    0.000000    0.000000    0.000000
     6        -0.437523048872426    5.159e-04    0.013470    0.000000    0.000000    0.000000
     7        -0.437527695831635    2.659e-04    0.013465    0.000000    0.000000    0.000000
     8        -0.437528299304000    9.999e-05    0.013460    0.000000    0.000000    0.000000
     9        -0.437529681360456    7.453e-05    0.013461    0.000000    0.000000    0.000000
    10        -0.437528109469713    6.426e-05    0.013462    0.000000    0.000000    0.000000
    11        -0.437528258318045    6.135e-05    0.013464    0.000000    0.000000    0.000000
    12        -0.437527970987823    5.963e-05    0.013466    0.000000    0.000000    0.000000
    13        -0.437527966122060    5.849e-05    0.013469    0.000000    0.000000    0.000000
    14        -0.437529140480084    5.663e-05    0.013487    0.000000    0.000000    0.000000
    15        -0.437529517852996    5.013e-05    0.013559    0.000000    0.000000    0.000000
    16        -0.437529291612516    3.354e-05    0.013698    0.000000    0.000000    0.000000
    17        -0.437528944918751    1.619e-05    0.013766    0.000000    0.000000    0.000000
    18        -0.437528813188896    7.600e-06    0.013784    0.000000    0.000000    0.000000
    19        -0.437529072304186    3.360e-06    0.013788    0.000000    0.000000    0.000000
    20        -0.437529184248071    1.505e-06    0.013789    0.000000    0.000000    0.000000
    21        -0.437529192256049    5.938e-07    0.013789    0.000000    0.000000    0.000000
    22        -0.437529193632402    2.823e-07    0.013789    0.000000    0.000000    0.000000
    23        -0.437529192532468    1.468e-07    0.013789    0.000000    0.000000    0.000000
    24        -0.437529191842038    6.101e-08    0.013789    0.000000    0.000000    0.000000
    25        -0.437529192812129    3.331e-08    0.013789    0.000000    0.000000    0.000000
    26        -0.437529193272947    2.587e-08    0.013789    0.000000    0.000000    0.000000
    27        -0.437529193431239    2.424e-08    0.013789    0.000000    0.000000    0.000000
    28        -0.437529193379016    2.350e-08    0.013789    0.000000    0.000000    0.000000
    29        -0.437529193214161    2.283e-08    0.013789    0.000000    0.000000    0.000000
    30        -0.437529192944564    2.175e-08    0.013789    0.000000    0.000000    0.000000
    31        -0.437529193139065    1.849e-08    0.013789    0.000000    0.000000    0.000000
    32        -0.437529193487205    9.773e-09    0.013789    0.000000    0.000000    0.000000
    33        -0.437529193591815    4.278e-09    0.013789    0.000000    0.000000    0.000000
    34        -0.437529193645805    1.748e-09    0.013789    0.000000    0.000000    0.000000
    35        -0.437529193652817    6.830e-10    0.013789    0.000000    0.000000    0.000000
    36        -0.437529193652673    2.923e-10    0.013789    0.000000    0.000000    0.000000

      * MP2 total energy                      = -151.291079430661171
      * CCSD total energy                     = -151.311887958900627
      * CCSD(T) total energy                     = -151.324257602242710
*** Psi4 exiting successfully. Buy a developer a beer!
