                               Psi4 1.3.2 release

  ==> Input File <==

--------------------------------------------------------------------------
memory 4 GB

molecule  {
0 3
O    0.000000000000    0.000000000000    1.263550001736
H    0.000000000000   -0.762322041832    1.852060024136
H   -0.000000000000    0.762322041832    1.852060024136
O    0.000000000000    0.000000000000   -1.496943239264
}
set {
basis aug-cc-pvtz
reference uhf
e_convergence 10
scf_type pk
freeze_core true
}

set ccenergy {
e_convergence 10
r_convergence 10
}

e = energy('ccsd(t)')

print_out('Stephenergy {}'.format(e))

--------------------------------------------------------------------------

    Molecular point group: c2v

    Geometry (in Angstrom), charge = 0, multiplicity = 3:

       Center              X                  Y                   Z               Mass
    ------------   -----------------  -----------------  -----------------  -----------------
         O           -0.000000000000     0.000000000000     1.263550001736    15.994914619570
         H            0.000000000000    -0.762322041832     1.852060024136     1.007825032230
         H           -0.000000000000     0.762322041832     1.852060024136     1.007825032230
         O           -0.000000000000     0.000000000000    -1.496943239264    15.994914619570

  Charge       = 0
  Multiplicity = 3
  Basis Set: AUG-CC-PVTZ
    Blend: AUG-CC-PVTZ

    Orbital Energies [Eh]
    ---------------------

    Alpha Occupied:

       1A1   -20.684240     2A1   -20.571375     3A1    -1.393707
       4A1    -1.354421     1B2    -0.718495     5A1    -0.688107
       1B1    -0.684991     2B2    -0.586001     6A1    -0.585593
       2B1    -0.513842

    Alpha Virtual:

       7A1     0.029558     3B2     0.047647     8A1     0.118429
       3B1     0.154177     9A1     0.159454     4B2     0.180174
       5B2     0.187121     4B1     0.192812    10A1     0.197961
       1A2     0.263575     6B2     0.264252    11A1     0.265117
      12A1     0.314462     5B1     0.327155    13A1     0.376092
       7B2     0.380231    14A1     0.449461     8B2     0.464031
       9B2     0.600188     6B1     0.643893    15A1     0.647439
       2A2     0.658214    16A1     0.666734    17A1     0.698204
       3A2     0.721554    10B2     0.723542     7B1     0.768508
      18A1     0.793017    19A1     0.819473     8B1     0.837340
      20A1     0.860019     9B1     0.901417    11B2     0.918624
       4A2     0.924594    12B2     0.946164    13B2     0.980319
      21A1     0.990910    10B1     1.014631    22A1     1.046318
      14B2     1.050996    11B1     1.123013     5A2     1.176148
      23A1     1.191147    15B2     1.200204    16B2     1.329463
      24A1     1.335566    25A1     1.449685     6A2     1.506879
      12B1     1.594446    26A1     1.669373    27A1     1.812918
      17B2     1.818601    18B2     1.975596    28A1     2.040919
      13B1     2.048135    19B2     2.054295     7A2     2.057667
      14B1     2.059105    29A1     2.078310    30A1     2.115006
       8A2     2.119142    20B2     2.136986    31A1     2.140623
      15B1     2.146640    32A1     2.252380    21B2     2.270782
      16B1     2.303117     9A2     2.311416    17B1     2.436048
      33A1     2.473600    22B2     2.482232    34A1     2.488472
      35A1     2.698040    18B1     2.717053    23B2     2.722956
      36A1     2.841033    24B2     2.863500    10A2     2.879132
      25B2     3.689528    37A1     3.753012    11A2     4.010815
      19B1     4.078067    20B1     4.099623    38A1     4.143431
      26B2     4.183729    27B2     4.278631    21B1     4.291858
      39A1     4.353671    12A2     4.381401    40A1     4.431115
      22B1     4.450695    28B2     4.512265    41A1     4.787587
      29B2     4.833285    30B2     5.135342    13A2     5.140878
      31B2     5.248144    42A1     5.333656    23B1     5.510115
      43A1     5.686124    44A1     6.194051    24B1     6.389896
      45A1     6.410331    14A2     6.410690    32B2     6.424050
      25B1     6.435857    33B2     6.489321    46A1     6.538131
      34B2     6.582722    26B1     6.717170    27B1     6.903329
      47A1     6.906303    15A2     6.924858    48A1     6.939610
      35B2     6.986528    49A1     7.045750    28B1     7.133666
      29B1     7.277132    16A2     7.301643    36B2     7.309447
      17A2     7.352365    50A1     7.434796    51A1     7.538972
      37B2     7.908219    52A1     7.910054    38B2     8.795028
      53A1     8.874490    54A1    15.727176

    Beta Occupied:

       1A1   -20.605364     2A1   -20.570890     3A1    -1.353705
       4A1    -1.050890     1B2    -0.718150     5A1    -0.587423
       1B1    -0.513150     2B2    -0.495408

    Beta Virtual:

       6A1     0.029397     3B2     0.047729     2B1     0.086699
       7A1     0.092009     8A1     0.141187     9A1     0.166955
       3B1     0.170718     4B2     0.180782     5B2     0.190740
      10A1     0.225465     4B1     0.253427     1A2     0.263577
       6B2     0.264693    11A1     0.288588    12A1     0.316897
       5B1     0.328438     7B2     0.380403    13A1     0.386528
      14A1     0.450532     8B2     0.464235     9B2     0.601827
      15A1     0.659982     6B1     0.667674     2A2     0.672599
      16A1     0.674021    17A1     0.715430     3A2     0.722038
      10B2     0.735718     7B1     0.779934    18A1     0.807003
       8B1     0.846666    19A1     0.850330     4A2     0.924998
      20A1     0.928165    11B2     0.936403    12B2     0.953066
      13B2     0.984197     9B1     0.987423    21A1     0.997845
      14B2     1.052116    22A1     1.052840    10B1     1.061027
      11B1     1.139630     5A2     1.176346    23A1     1.192604
      15B2     1.202922    16B2     1.331884    24A1     1.392240
      25A1     1.488434     6A2     1.507314    12B1     1.596432
      26A1     1.699721    27A1     1.818107    17B2     1.818922
      18B2     1.977028    28A1     2.070184    13B1     2.071033
      19B2     2.071711     7A2     2.082333    29A1     2.098127
      14B1     2.100787    30A1     2.155426    20B2     2.183496
       8A2     2.202320    31A1     2.208722    15B1     2.259379
      32A1     2.310125     9A2     2.311547    16B1     2.318512
      21B2     2.321804    17B1     2.444494    33A1     2.481859
      22B2     2.485105    34A1     2.521548    35A1     2.704954
      18B1     2.718788    23B2     2.723862    36A1     2.853597
      24B2     2.863652    10A2     2.879168    25B2     3.690442
      37A1     3.753147    11A2     4.010845    19B1     4.080251
      38A1     4.175576    26B2     4.218275    20B1     4.259993
      27B2     4.290520    21B1     4.296546    12A2     4.381511
      39A1     4.427652    22B1     4.456004    40A1     4.472111
      28B2     4.512355    41A1     4.798863    29B2     4.833446
      30B2     5.135530    13A2     5.140957    31B2     5.248586
      42A1     5.334283    23B1     5.510231    43A1     5.690884
      44A1     6.195600    24B1     6.485909    14A2     6.487518
      32B2     6.488034    45A1     6.494085    25B1     6.499696
      33B2     6.524925    46A1     6.609508    34B2     6.610838
      26B1     6.724608    47A1     6.955545    15A2     7.038407
      48A1     7.042402    27B1     7.085797    35B2     7.098378
      28B1     7.134102    49A1     7.173616    29B1     7.281302
      16A2     7.301914    36B2     7.309644    17A2     7.352806
      50A1     7.437564    51A1     7.540100    37B2     7.908584
      52A1     7.910645    38B2     8.795414    53A1     8.953758
      54A1    15.727510

    Final Occupation by Irrep:
             A1    A2    B1    B2
    DOCC [     5,    0,    1,    2 ]
    SOCC [     1,    0,    1,    0 ]

  @UHF Final Energy:  -150.87337114081521

   => Energetics <=

    Nuclear Repulsion Energy =             23.8723982998237858
    One-Electron Energy =                -255.8157867331642308
    Two-Electron Energy =                  81.0700172925252218
    Total Energy =                       -150.8733711408152089

  UHF NO Occupations:
  HONO-2 :    5 A1 1.9970486
  HONO-1 :    2 B1 1.0000000
  HONO-0 :    6 A1 1.0000000
  LUNO+0 :    7 A1 0.0029514
  LUNO+1 :    3 B2 0.0017973
  LUNO+2 :    8 A1 0.0000232
  LUNO+3 :    9 A1 0.0000024

Computation Completed

Properties will be evaluated at   0.000000,   0.000000,   0.000000 [a0]

Properties computed using the SCF density matrix

  Nuclear Dipole Moment: [e a0]
     X:    -0.0000      Y:     0.0000      Z:     3.4714

  Electronic Dipole Moment: [e a0]
     X:     0.0000      Y:     0.0000      Z:    -2.6353

  Dipole Moment: [e a0]
     X:    -0.0000      Y:     0.0000      Z:     0.8360     Total:     0.8360

  Dipole Moment: [D]
     X:    -0.0000      Y:     0.0000      Z:     2.1250     Total:     2.1250

*** tstop() called on c2-1.compute.lan at Mon Mar  8 17:32:16 2021
Module time:
	user time   =      44.67 seconds =       0.74 minutes
	system time =       1.93 seconds =       0.03 minutes
	total time  =          5 seconds =       0.08 minutes
Total time:
	user time   =      44.67 seconds =       0.74 minutes
	system time =       1.93 seconds =       0.03 minutes
	total time  =          5 seconds =       0.08 minutes
 MINTS: Wrapper to libmints.
   by Justin Turney

   Calculation information:
      Number of threads:                12
      Number of atoms:                   4
      Number of AO shells:              46
      Number of SO shells:              37
      Number of primitives:             82
      Number of atomic orbitals:       160
      Number of basis functions:       138

      Number of irreps:                  4
      Integral cutoff                 0.00e+00
      Number of functions per irrep: [  54   17   29   38 ]

 OEINTS: Overlap, kinetic, potential, dipole, and quadrupole integrals
         stored in file 35.

      Computing two-electron integrals...done
      Computed 11524468 non-zero two-electron integrals.
        Stored in file 33.

*** tstart() called on c2-1.compute.lan
*** at Mon Mar  8 17:32:18 2021

	Wfn Parameters:
	--------------------
	Wavefunction         = CCSD_T
	Number of irreps     = 4
	Number of MOs        = 138
	Number of active MOs = 136
	AO-Basis             = NONE
	Semicanonical        = false
	Reference            = UHF
	Print Level          = 1

	IRREP	# MOs	# FZDC	# DOCC	# SOCC	# VIRT	# FZVR
	-----	-----	------	------	------	------	------
	 A1	   54	    2	    3	    1	    48	    0
	 A2	   17	    0	    0	    0	    17	    0
	 B1	   29	    0	    1	    1	    27	    0
	 B2	   38	    0	    2	    0	    36	    0
	Transforming integrals...
	IWL integrals will be deleted.
	(OO|OO)...
	Presorting SO-basis two-electron integrals.
	Sorting File: SO Ints (nn|nn) nbuckets = 1
	Transforming the one-electron integrals and constructing Fock matrices
	Starting AA/AB first half-transformation.
	Sorting AA/AB half-transformed integrals.
	Starting BB first half-transformation.
	Sorting BB half-transformed integrals.
	First half integral transformation complete.
	Starting AA second half-transformation.
	Starting AB second half-transformation.
	Starting BB second half-transformation.
	Two-electron integral transformation complete.
	(OO|OV)...
	Starting AA second half-transformation.
	Starting AB second half-transformation.
	Starting BB second half-transformation.
	Two-electron integral transformation complete.
	(OO|VV)...
	Starting AA second half-transformation.
	Starting AB second half-transformation.
	Starting BB second half-transformation.
	Two-electron integral transformation complete.
	(OV|OO)...
	Starting AA/AB first half-transformation.
	Sorting AA/AB half-transformed integrals.
	Starting BB first half-transformation.
	Sorting BB half-transformed integrals.
	First half integral transformation complete.
	Starting AA second half-transformation.
	Starting AB second half-transformation.
	Starting BB second half-transformation.
	Two-electron integral transformation complete.
	(OV|OV)...
	Starting AA second half-transformation.
	Starting AB second half-transformation.
	Starting BB second half-transformation.
	Two-electron integral transformation complete.
	(OV|VV)...
	Starting AA second half-transformation.
	Starting AB second half-transformation.
	Starting BB second half-transformation.
	Two-electron integral transformation complete.
	(VV|OO)...
	Starting AA/AB first half-transformation.
	Sorting AA/AB half-transformed integrals.
	Starting BB first half-transformation.
	Sorting BB half-transformed integrals.
	First half integral transformation complete.
	Starting AA second half-transformation.
	Starting AB second half-transformation.
	Starting BB second half-transformation.
	Two-electron integral transformation complete.
	(VV|OV)...
	Starting AA second half-transformation.
	Starting AB second half-transformation.
	Starting BB second half-transformation.
	Two-electron integral transformation complete.
	(VV|VV)...
	Starting AA second half-transformation.
	Starting AB second half-transformation.
	Starting BB second half-transformation.
	Two-electron integral transformation complete.
	Frozen core energy     =   -126.39245425032944

	Size of irrep 0 of <AB|CD> integrals:      5.040 (MW) /     40.320 (MB)
	Size of irrep 1 of <AB|CD> integrals:      3.197 (MW) /     25.576 (MB)
	Size of irrep 2 of <AB|CD> integrals:      3.640 (MW) /     29.124 (MB)
	Size of irrep 3 of <AB|CD> integrals:      4.783 (MW) /     38.264 (MB)
	Total:                                    16.660 (MW) /    133.283 (MB)

	Size of irrep 0 of <ab|cd> integrals:      5.382 (MW) /     43.059 (MB)
	Size of irrep 1 of <ab|cd> integrals:      3.389 (MW) /     27.114 (MB)
	Size of irrep 2 of <ab|cd> integrals:      3.936 (MW) /     31.490 (MB)
	Size of irrep 3 of <ab|cd> integrals:      5.018 (MW) /     40.141 (MB)
	Total:                                    17.726 (MW) /    141.804 (MB)

	Size of irrep 0 of <Ab|Cd> integrals:     22.024 (MW) /    176.194 (MB)
	Size of irrep 1 of <Ab|Cd> integrals:     13.170 (MW) /    105.357 (MB)
	Size of irrep 2 of <Ab|Cd> integrals:     15.140 (MW) /    121.119 (MB)
	Size of irrep 3 of <Ab|Cd> integrals:     19.598 (MW) /    156.787 (MB)
	Total:                                    69.932 (MW) /    559.457 (MB)

	Size of irrep 0 of <IA|BC> integrals:      1.469 (MW) /     11.748 (MB)
	Size of irrep 1 of <IA|BC> integrals:      0.694 (MW) /      5.550 (MB)
	Size of irrep 2 of <IA|BC> integrals:      0.908 (MW) /      7.266 (MB)
	Size of irrep 3 of <IA|BC> integrals:      1.198 (MW) /      9.588 (MB)
	Total:                                     4.269 (MW) /     34.152 (MB)

	Size of irrep 0 of <ia|bc> integrals:      1.178 (MW) /      9.426 (MB)
	Size of irrep 1 of <ia|bc> integrals:      0.527 (MW) /      4.212 (MB)
	Size of irrep 2 of <ia|bc> integrals:      0.663 (MW) /      5.301 (MB)
	Size of irrep 3 of <ia|bc> integrals:      0.999 (MW) /      7.992 (MB)
	Total:                                     3.366 (MW) /     26.931 (MB)

	Size of irrep 0 of <Ia|Bc> integrals:      1.521 (MW) /     12.164 (MB)
	Size of irrep 1 of <Ia|Bc> integrals:      0.711 (MW) /      5.690 (MB)
	Size of irrep 2 of <Ia|Bc> integrals:      0.949 (MW) /      7.595 (MB)
	Size of irrep 3 of <Ia|Bc> integrals:      1.222 (MW) /      9.775 (MB)
	Total:                                     4.403 (MW) /     35.225 (MB)

	Size of irrep 0 of <iA|bC> integrals:      1.140 (MW) /      9.123 (MB)
	Size of irrep 1 of <iA|bC> integrals:      0.512 (MW) /      4.094 (MB)
	Size of irrep 2 of <iA|bC> integrals:      0.634 (MW) /      5.074 (MB)
	Size of irrep 3 of <iA|bC> integrals:      0.978 (MW) /      7.827 (MB)
	Total:                                     3.265 (MW) /     26.118 (MB)

	Size of irrep 0 of tIjAb amplitudes:       0.084 (MW) /      0.676 (MB)
	Size of irrep 1 of tIjAb amplitudes:       0.022 (MW) /      0.174 (MB)
	Size of irrep 2 of tIjAb amplitudes:       0.039 (MW) /      0.311 (MB)
	Size of irrep 3 of tIjAb amplitudes:       0.062 (MW) /      0.496 (MB)
	Total:                                     0.207 (MW) /      1.657 (MB)

	Nuclear Rep. energy          =     23.87239829982379
	SCF energy                   =   -150.87337114081521
	One-electron energy          =    -85.46274706996067
	Two-electron (AA) energy     =     10.37502412804816
	Two-electron (BB) energy     =      5.47140202283204
	Two-electron (AB) energy     =     21.26300572876950
	Two-electron energy          =     37.10943187964969
	Reference energy             =   -150.87337114081663

*** tstop() called on c2-1.compute.lan at Mon Mar  8 17:32:39 2021
Module time:
	user time   =      87.64 seconds =       1.46 minutes
	system time =      12.39 seconds =       0.21 minutes
	total time  =         21 seconds =       0.35 minutes
Total time:
	user time   =     137.69 seconds =       2.29 minutes
	system time =      14.83 seconds =       0.25 minutes
	total time  =         28 seconds =       0.47 minutes
            **************************
            *                        *
            *        CCENERGY        *
            *                        *
            **************************

    Nuclear Rep. energy (wfn)     =   23.872398299823786
    SCF energy          (wfn)     = -150.873371140815209
    Reference energy    (file100) = -150.873371140816630

    Input parameters:
    -----------------
    Wave function   =     CCSD_T
    Reference wfn   =     UHF
    Brueckner       =     No
    Memory (Mbytes) =     4000.0
    Maxiter         =     50
    R_Convergence   =     1.0e-10
    E_Convergence   =     1.0e-10
    Restart         =     Yes
    DIIS            =     Yes
    AO Basis        =     NONE
    ABCD            =     NEW
    Cache Level     =     2
    Cache Type      =     LRU
    Print Level     =     1
    Num. of threads =     12
    # Amps to Print =     10
    Print MP2 Amps? =     No
    Analyze T2 Amps =     No
    Print Pair Ener =     No
    Local CC        =     No
    SCS-MP2         =     False
    SCSN-MP2        =     False
    SCS-CCSD        =     False

MP2 correlation energy -0.4164101675638605
                Solving CC Amplitude Equations
                ------------------------------
  Iter             Energy              RMS        T1Diag      D1Diag    New D1Diag    D2Diag
  ----     ---------------------    ---------   ----------  ----------  ----------   --------
     0        -0.416410167563861    0.000e+00    0.000000    0.000000    0.000000    0.000000
     1        -0.427158392428663    5.710e-02    0.010608    0.000000    0.000000    0.000000
     2        -0.435270283199016    1.707e-02    0.011102    0.000000    0.000000    0.000000
     3        -0.437429692742803    8.811e-03    0.013034    0.000000    0.000000    0.000000
     4        -0.437303035341913    2.693e-03    0.013448    0.000000    0.000000    0.000000
     5        -0.437293520673278    1.404e-03    0.013645    0.000000    0.000000    0.000000
     6        -0.437322742940774    5.317e-04    0.013672    0.000000    0.000000    0.000000
     7        -0.437325733175519    2.161e-04    0.013667    0.000000    0.000000    0.000000
     8        -0.437326666266780    6.697e-05    0.013662    0.000000    0.000000    0.000000
     9        -0.437327360150489    2.403e-05    0.013661    0.000000    0.000000    0.000000
    10        -0.437326451214857    9.253e-06    0.013661    0.000000    0.000000    0.000000
    11        -0.437326617341791    4.042e-06    0.013661    0.000000    0.000000    0.000000
    12        -0.437326577214059    1.469e-06    0.013661    0.000000    0.000000    0.000000
    13        -0.437326585488505    7.440e-07    0.013661    0.000000    0.000000    0.000000
    14        -0.437326608510765    3.125e-07    0.013661    0.000000    0.000000    0.000000
    15        -0.437326610120743    1.136e-07    0.013661    0.000000    0.000000    0.000000
    16        -0.437326610724363    5.170e-08    0.013661    0.000000    0.000000    0.000000
    17        -0.437326611287599    1.978e-08    0.013661    0.000000    0.000000    0.000000
    18        -0.437326611131234    1.051e-08    0.013661    0.000000    0.000000    0.000000

      * MP2 total energy                      = -151.289781308380498
      * CCSD total energy                     = -151.310697751683080
      * CCSD(T) total energy                     = -151.323010036615813
*** Psi4 exiting successfully. Buy a developer a beer!
