                               Psi4 1.3.2 release

  ==> Input File <==

--------------------------------------------------------------------------
memory 4 GB

molecule  {
0 3
O   -1.626052396214   -0.021773618994    0.000000000000
H   -0.660719113334   -0.022977264693    0.000000000000
H   -1.861346944669    0.909787736516    0.000000000000
O    1.784965486196   -0.034103502804    0.000000000000
}
set {
basis aug-cc-pvtz
reference uhf
e_convergence 10
scf_type pk
freeze_core true
}

set ccenergy {
e_convergence 10
r_convergence 10
}

e = energy('ccsd(t)')

print_out('Stephenergy {}'.format(e))

--------------------------------------------------------------------------

    Molecular point group: cs

    Geometry (in Angstrom), charge = 0, multiplicity = 3:

       Center              X                  Y                   Z               Mass
    ------------   -----------------  -----------------  -----------------  -----------------
         O           -1.626052396214    -0.021773618994     0.000000000000    15.994914619570
         H           -0.660719113334    -0.022977264693     0.000000000000     1.007825032230
         H           -1.861346944669     0.909787736516     0.000000000000     1.007825032230
         O            1.784965486196    -0.034103502804     0.000000000000    15.994914619570

  Charge       = 0
  Multiplicity = 3
  Basis Set: AUG-CC-PVTZ
    Blend: AUG-CC-PVTZ

    Orbital Energies [Eh]
    ---------------------

    Alpha Occupied:

       1Ap   -20.731336     2Ap   -20.561388     3Ap    -1.440177
       4Ap    -1.344470     5Ap    -0.731057     1App   -0.730966
       6Ap    -0.709118     7Ap    -0.633379     8Ap    -0.577477
       2App   -0.503751

    Alpha Virtual:

       9Ap     0.034228    10Ap     0.053380    11Ap     0.128531
       3App    0.132320    12Ap     0.147474    13Ap     0.160439
      14Ap     0.182865     4App    0.183490    15Ap     0.207444
      16Ap     0.236297    17Ap     0.268934     5App    0.281238
      18Ap     0.290288     6App    0.318986    19Ap     0.362322
      20Ap     0.387466    21Ap     0.457523    22Ap     0.555662
       7App    0.602936    23Ap     0.607846    24Ap     0.643904
      25Ap     0.666081     8App    0.689304    26Ap     0.711960
       9App    0.733564    10App    0.747461    27Ap     0.758596
      28Ap     0.789573    11App    0.824687    29Ap     0.838752
      30Ap     0.854044    12App    0.876423    31Ap     0.914496
      32Ap     0.929962    13App    0.938916    33Ap     0.949824
      14App    0.974580    34Ap     0.978074    35Ap     1.039309
      36Ap     1.089336    15App    1.164257    37Ap     1.171050
      38Ap     1.214586    16App    1.215877    39Ap     1.266356
      40Ap     1.279769    17App    1.522208    41Ap     1.539476
      18App    1.590952    42Ap     1.610702    43Ap     1.804132
      44Ap     1.814078    19App    1.978285    45Ap     1.978341
      46Ap     2.004217    20App    2.009686    47Ap     2.019117
      21App    2.035432    48Ap     2.042120    22App    2.093588
      49Ap     2.127509    50Ap     2.142761    23App    2.167626
      51Ap     2.245956    24App    2.287206    52Ap     2.326479
      53Ap     2.374724    25App    2.429858    54Ap     2.454632
      26App    2.463716    55Ap     2.487420    56Ap     2.552397
      57Ap     2.654311    27App    2.724206    58Ap     2.728032
      59Ap     2.856686    60Ap     2.914329    28App    2.936277
      61Ap     3.685128    62Ap     3.819331    29App    4.027728
      30App    4.054067    63Ap     4.069282    31App    4.145477
      64Ap     4.186374    65Ap     4.265715    32App    4.295685
      66Ap     4.364834    33App    4.389321    34App    4.428742
      67Ap     4.430394    68Ap     4.562701    69Ap     4.772357
      70Ap     4.934791    35App    5.150881    71Ap     5.174105
      72Ap     5.299280    73Ap     5.364307    36App    5.522016
      74Ap     5.681183    75Ap     6.188575    37App    6.313594
      76Ap     6.313617    38App    6.367016    77Ap     6.368310
      39App    6.472183    78Ap     6.489941    79Ap     6.534092
      80Ap     6.598633    40App    6.717166    81Ap     6.813790
      41App    6.818137    82Ap     6.910581    42App    6.925665
      83Ap     6.953413    84Ap     7.040161    43App    7.140172
      44App    7.270260    85Ap     7.318676    45App    7.320282
      86Ap     7.349760    46App    7.414695    87Ap     7.635751
      88Ap     7.929743    89Ap     7.949606    90Ap     8.802358
      91Ap     9.031903    92Ap    16.300893

    Beta Occupied:

       1Ap   -20.652584     2Ap   -20.561468     3Ap    -1.344788
       4Ap    -1.097633     5Ap    -0.708877     6Ap    -0.580668
       7Ap    -0.540749     1App   -0.503793

    Beta Virtual:

       8Ap     0.034125     9Ap     0.047240     2App    0.049707
      10Ap     0.058552    11Ap     0.143391    12Ap     0.151601
       3App    0.160135    13Ap     0.179701    14Ap     0.207809
      15Ap     0.217553     4App    0.226523    16Ap     0.245192
      17Ap     0.271246     5App    0.281447    18Ap     0.292922
       6App    0.320650    19Ap     0.365676    20Ap     0.394780
      21Ap     0.458010    22Ap     0.557864     7App    0.635743
      23Ap     0.638354    24Ap     0.646973    25Ap     0.669531
       8App    0.703208    26Ap     0.712607     9App    0.734414
      10App    0.748573    27Ap     0.772948    28Ap     0.801059
      29Ap     0.845441    11App    0.860872    30Ap     0.912138
      12App    0.927039    31Ap     0.930718    32Ap     0.946288
      13App    0.948605    33Ap     0.968833    34Ap     1.009126
      14App    1.023073    35Ap     1.041043    36Ap     1.099202
      15App    1.168336    37Ap     1.174150    16App    1.224354
      38Ap     1.257246    39Ap     1.270086    40Ap     1.288817
      17App    1.523019    41Ap     1.551368    18App    1.591971
      42Ap     1.638781    43Ap     1.807171    44Ap     1.816266
      45Ap     2.015502    19App    2.016440    46Ap     2.016719
      20App    2.039749    47Ap     2.047851    21App    2.130372
      48Ap     2.170230    49Ap     2.177820    22App    2.179184
      50Ap     2.181791    23App    2.216990    51Ap     2.283813
      24App    2.288704    52Ap     2.334864    53Ap     2.390588
      25App    2.432837    54Ap     2.456651    26App    2.471748
      55Ap     2.494384    56Ap     2.558257    57Ap     2.661686
      27App    2.724823    58Ap     2.730395    59Ap     2.860415
      60Ap     2.916318    28App    2.936948    61Ap     3.685456
      62Ap     3.820537    29App    4.028239    30App    4.128471
      63Ap     4.176438    64Ap     4.240236    31App    4.241187
      65Ap     4.274927    32App    4.295715    66Ap     4.381690
      33App    4.389574    34App    4.430276    67Ap     4.460915
      68Ap     4.563409    69Ap     4.773576    70Ap     4.935576
      35App    5.150867    71Ap     5.174519    72Ap     5.299488
      73Ap     5.365079    36App    5.522018    74Ap     5.681509
      75Ap     6.189393    37App    6.422551    76Ap     6.422567
      38App    6.443106    77Ap     6.444571    78Ap     6.522986
      39App    6.527972    79Ap     6.556834    80Ap     6.645692
      40App    6.719707    81Ap     6.910870    41App    7.005434
      82Ap     7.006021    42App    7.034879    83Ap     7.061393
      84Ap     7.122914    43App    7.142249    44App    7.270426
      85Ap     7.318864    45App    7.320854    86Ap     7.349948
      46App    7.415249    87Ap     7.637929    88Ap     7.930176
      89Ap     7.949801    90Ap     8.805308    91Ap     9.106605
      92Ap    16.301216

    Final Occupation by Irrep:
             Ap   App
    DOCC [     7,    1 ]
    SOCC [     1,    1 ]

  @UHF Final Energy:  -150.87459155567302

   => Energetics <=

    Nuclear Repulsion Energy =             21.9232230242390500
    One-Electron Energy =                -251.6419527666342617
    Two-Electron Energy =                  78.8441381867221764
    Total Energy =                       -150.8745915556730495

  UHF NO Occupations:
  HONO-2 :    7 Ap 1.9970388
  HONO-1 :    2App 1.0000000
  HONO-0 :    8 Ap 1.0000000
  LUNO+0 :    9 Ap 0.0029612
  LUNO+1 :   10 Ap 0.0017374
  LUNO+2 :   11 Ap 0.0000024
  LUNO+3 :   12 Ap 0.0000007

Computation Completed

Properties will be evaluated at   0.000000,   0.000000,   0.000000 [a0]

Properties computed using the SCF density matrix

  Nuclear Dipole Moment: [e a0]
     X:    -2.3636      Y:     0.8311      Z:     0.0000

  Electronic Dipole Moment: [e a0]
     X:     2.9183      Y:    -0.2218      Z:     0.0000

  Dipole Moment: [e a0]
     X:     0.5547      Y:     0.6093      Z:     0.0000     Total:     0.8240

  Dipole Moment: [D]
     X:     1.4100      Y:     1.5488      Z:     0.0000     Total:     2.0945

*** tstop() called on c5-7.compute.lan at Tue Mar  9 14:35:06 2021
Module time:
	user time   =      60.20 seconds =       1.00 minutes
	system time =       0.99 seconds =       0.02 minutes
	total time  =          7 seconds =       0.12 minutes
Total time:
	user time   =      60.20 seconds =       1.00 minutes
	system time =       0.99 seconds =       0.02 minutes
	total time  =          7 seconds =       0.12 minutes
 MINTS: Wrapper to libmints.
   by Justin Turney

   Calculation information:
      Number of threads:                12
      Number of atoms:                   4
      Number of AO shells:              46
      Number of SO shells:              46
      Number of primitives:             82
      Number of atomic orbitals:       160
      Number of basis functions:       138

      Number of irreps:                  2
      Integral cutoff                 0.00e+00
      Number of functions per irrep: [  92   46 ]

 OEINTS: Overlap, kinetic, potential, dipole, and quadrupole integrals
         stored in file 35.

      Computing two-electron integrals...done
      Computed 22927233 non-zero two-electron integrals.
        Stored in file 33.

*** tstart() called on c5-7.compute.lan
*** at Tue Mar  9 14:35:09 2021

	Wfn Parameters:
	--------------------
	Wavefunction         = CCSD_T
	Number of irreps     = 2
	Number of MOs        = 138
	Number of active MOs = 136
	AO-Basis             = NONE
	Semicanonical        = false
	Reference            = UHF
	Print Level          = 1

	IRREP	# MOs	# FZDC	# DOCC	# SOCC	# VIRT	# FZVR
	-----	-----	------	------	------	------	------
	 Ap	   92	    2	    5	    1	    84	    0
	 App	   46	    0	    1	    1	    44	    0
	Transforming integrals...
	IWL integrals will be deleted.
	(OO|OO)...
	Presorting SO-basis two-electron integrals.
	Sorting File: SO Ints (nn|nn) nbuckets = 1
	Transforming the one-electron integrals and constructing Fock matrices
	Starting AA/AB first half-transformation.
	Sorting AA/AB half-transformed integrals.
	Starting BB first half-transformation.
	Sorting BB half-transformed integrals.
	First half integral transformation complete.
	Starting AA second half-transformation.
	Starting AB second half-transformation.
	Starting BB second half-transformation.
	Two-electron integral transformation complete.
	(OO|OV)...
	Starting AA second half-transformation.
	Starting AB second half-transformation.
	Starting BB second half-transformation.
	Two-electron integral transformation complete.
	(OO|VV)...
	Starting AA second half-transformation.
	Starting AB second half-transformation.
	Starting BB second half-transformation.
	Two-electron integral transformation complete.
	(OV|OO)...
	Starting AA/AB first half-transformation.
	Sorting AA/AB half-transformed integrals.
	Starting BB first half-transformation.
	Sorting BB half-transformed integrals.
	First half integral transformation complete.
	Starting AA second half-transformation.
	Starting AB second half-transformation.
	Starting BB second half-transformation.
	Two-electron integral transformation complete.
	(OV|OV)...
	Starting AA second half-transformation.
	Starting AB second half-transformation.
	Starting BB second half-transformation.
	Two-electron integral transformation complete.
	(OV|VV)...
	Starting AA second half-transformation.
	Starting AB second half-transformation.
	Starting BB second half-transformation.
	Two-electron integral transformation complete.
	(VV|OO)...
	Starting AA/AB first half-transformation.
	Sorting AA/AB half-transformed integrals.
	Starting BB first half-transformation.
	Sorting BB half-transformed integrals.
	First half integral transformation complete.
	Starting AA second half-transformation.
	Starting AB second half-transformation.
	Starting BB second half-transformation.
	Two-electron integral transformation complete.
	(VV|OV)...
	Starting AA second half-transformation.
	Starting AB second half-transformation.
	Starting BB second half-transformation.
	Two-electron integral transformation complete.
	(VV|VV)...
	Starting AA second half-transformation.
	Starting AB second half-transformation.
	Starting BB second half-transformation.
	Two-electron integral transformation complete.
	Frozen core energy     =   -125.46640161673032

	Size of irrep 0 of <AB|CD> integrals:     19.643 (MW) /    157.141 (MB)
	Size of irrep 1 of <AB|CD> integrals:     13.660 (MW) /    109.283 (MB)
	Total:                                    33.303 (MW) /    266.424 (MB)

	Size of irrep 0 of <ab|cd> integrals:     20.794 (MW) /    166.349 (MB)
	Size of irrep 1 of <ab|cd> integrals:     14.631 (MW) /    117.045 (MB)
	Total:                                    35.424 (MW) /    283.394 (MB)

	Size of irrep 0 of <Ab|Cd> integrals:     83.174 (MW) /    665.395 (MB)
	Size of irrep 1 of <Ab|Cd> integrals:     56.550 (MW) /    452.403 (MB)
	Total:                                   139.725 (MW) /   1117.798 (MB)

	Size of irrep 0 of <IA|BC> integrals:      5.323 (MW) /     42.586 (MB)
	Size of irrep 1 of <IA|BC> integrals:      3.193 (MW) /     25.547 (MB)
	Total:                                     8.517 (MW) /     68.133 (MB)

	Size of irrep 0 of <ia|bc> integrals:      4.348 (MW) /     34.780 (MB)
	Size of irrep 1 of <ia|bc> integrals:      2.372 (MW) /     18.972 (MB)
	Total:                                     6.719 (MW) /     53.752 (MB)

	Size of irrep 0 of <Ia|Bc> integrals:      5.472 (MW) /     43.776 (MB)
	Size of irrep 1 of <Ia|Bc> integrals:      3.309 (MW) /     26.470 (MB)
	Total:                                     8.781 (MW) /     70.246 (MB)

	Size of irrep 0 of <iA|bC> integrals:      4.232 (MW) /     33.853 (MB)
	Size of irrep 1 of <iA|bC> integrals:      2.286 (MW) /     18.289 (MB)
	Total:                                     6.518 (MW) /     52.142 (MB)

	Size of irrep 0 of tIjAb amplitudes:       0.292 (MW) /      2.335 (MB)
	Size of irrep 1 of tIjAb amplitudes:       0.120 (MW) /      0.963 (MB)
	Total:                                     0.412 (MW) /      3.297 (MB)

	Nuclear Rep. energy          =     21.92322302423905
	SCF energy                   =   -150.87459155567302
	One-electron energy          =    -83.21592427339063
	Two-electron (AA) energy     =      9.94293623278587
	Two-electron (BB) energy     =      5.29145222300058
	Two-electron (AB) energy     =     20.65012285442125
	Two-electron energy          =     35.88451131020770
	Reference energy             =   -150.87459155567421

*** tstop() called on c5-7.compute.lan at Tue Mar  9 14:35:54 2021
Module time:
	user time   =     241.19 seconds =       4.02 minutes
	system time =      18.35 seconds =       0.31 minutes
	total time  =         45 seconds =       0.75 minutes
Total time:
	user time   =     307.48 seconds =       5.12 minutes
	system time =      19.95 seconds =       0.33 minutes
	total time  =         55 seconds =       0.92 minutes
            **************************
            *                        *
            *        CCENERGY        *
            *                        *
            **************************

    Nuclear Rep. energy (wfn)     =   21.923223024239050
    SCF energy          (wfn)     = -150.874591555673021
    Reference energy    (file100) = -150.874591555674215

    Input parameters:
    -----------------
    Wave function   =     CCSD_T
    Reference wfn   =     UHF
    Brueckner       =     No
    Memory (Mbytes) =     4000.0
    Maxiter         =     50
    R_Convergence   =     1.0e-10
    E_Convergence   =     1.0e-10
    Restart         =     Yes
    DIIS            =     Yes
    AO Basis        =     NONE
    ABCD            =     NEW
    Cache Level     =     2
    Cache Type      =     LRU
    Print Level     =     1
    Num. of threads =     12
    # Amps to Print =     10
    Print MP2 Amps? =     No
    Analyze T2 Amps =     No
    Print Pair Ener =     No
    Local CC        =     No
    SCS-MP2         =     False
    SCSN-MP2        =     False
    SCS-CCSD        =     False

MP2 correlation energy -0.4161915820982578
                Solving CC Amplitude Equations
                ------------------------------
  Iter             Energy              RMS        T1Diag      D1Diag    New D1Diag    D2Diag
  ----     ---------------------    ---------   ----------  ----------  ----------   --------
     0        -0.416191582098258    0.000e+00    0.000000    0.000000    0.000000    0.000000
     1        -0.426944275486003    5.671e-02    0.010470    0.000000    0.000000    0.000000
     2        -0.435037931311153    1.688e-02    0.010948    0.000000    0.000000    0.000000
     3        -0.437158629970242    8.492e-03    0.012790    0.000000    0.000000    0.000000
     4        -0.437033074765436    2.521e-03    0.013140    0.000000    0.000000    0.000000
     5        -0.437021342971251    1.276e-03    0.013286    0.000000    0.000000    0.000000
     6        -0.437047364320012    5.033e-04    0.013300    0.000000    0.000000    0.000000
     7        -0.437051493011028    2.291e-04    0.013290    0.000000    0.000000    0.000000
     8        -0.437052260867719    7.705e-05    0.013284    0.000000    0.000000    0.000000
     9        -0.437053503220513    4.698e-05    0.013283    0.000000    0.000000    0.000000
    10        -0.437052297934976    3.849e-05    0.013283    0.000000    0.000000    0.000000
    11        -0.437052395865915    3.699e-05    0.013284    0.000000    0.000000    0.000000
    12        -0.437052251558517    3.631e-05    0.013284    0.000000    0.000000    0.000000
    13        -0.437052168905264    3.580e-05    0.013285    0.000000    0.000000    0.000000
    14        -0.437052636525101    3.483e-05    0.013291    0.000000    0.000000    0.000000
    15        -0.437052703395569    3.235e-05    0.013306    0.000000    0.000000    0.000000
    16        -0.437052655278245    2.648e-05    0.013381    0.000000    0.000000    0.000000
    17        -0.437052598451989    1.524e-05    0.013434    0.000000    0.000000    0.000000
    18        -0.437052520813093    6.848e-06    0.013456    0.000000    0.000000    0.000000
    19        -0.437052693979360    3.003e-06    0.013461    0.000000    0.000000    0.000000
    20        -0.437052782903202    1.424e-06    0.013462    0.000000    0.000000    0.000000
    21        -0.437052788243084    5.841e-07    0.013463    0.000000    0.000000    0.000000
    22        -0.437052788469780    2.269e-07    0.013463    0.000000    0.000000    0.000000
    23        -0.437052788750963    9.891e-08    0.013463    0.000000    0.000000    0.000000
    24        -0.437052788549433    4.198e-08    0.013463    0.000000    0.000000    0.000000
    25        -0.437052789257196    2.172e-08    0.013463    0.000000    0.000000    0.000000
    26        -0.437052789633719    7.311e-09    0.013463    0.000000    0.000000    0.000000
    27        -0.437052789711004    2.369e-09    0.013463    0.000000    0.000000    0.000000
    28        -0.437052789739302    1.168e-09    0.013463    0.000000    0.000000    0.000000
    29        -0.437052789738754    7.262e-10    0.013463    0.000000    0.000000    0.000000
    30        -0.437052789728261    5.165e-10    0.013463    0.000000    0.000000    0.000000
    31        -0.437052789722766    4.342e-10    0.013463    0.000000    0.000000    0.000000
    32        -0.437052789720886    4.108e-10    0.013463    0.000000    0.000000    0.000000
    33        -0.437052789719713    3.989e-10    0.013463    0.000000    0.000000    0.000000
    34        -0.437052789718903    3.723e-10    0.013463    0.000000    0.000000    0.000000
    35        -0.437052789718131    3.021e-10    0.013463    0.000000    0.000000    0.000000
    36        -0.437052789719001    1.868e-10    0.013463    0.000000    0.000000    0.000000

      * MP2 total energy                      = -151.290783137772479
      * CCSD total energy                     = -151.311644345391898
      * CCSD(T) total energy                     = -151.323931008292533
*** Psi4 exiting successfully. Buy a developer a beer!
