                               Psi4 1.3.2 release

  ==> Input File <==

--------------------------------------------------------------------------
memory 4 GB

molecule  {
0 3
O   -1.558088525294   -0.023120912104    0.000000000000
H   -0.595019690094   -0.015116889232    0.000000000000
H   -1.819321420177    0.899205370870    0.000000000000
O    1.710213964231   -0.032584699566    0.000000000000
}
set {
basis aug-cc-pvtz
reference uhf
e_convergence 10
scf_type pk
freeze_core true
}

set ccenergy {
e_convergence 10
r_convergence 10
}

e = energy('ccsd(t)')

print_out('Stephenergy {}'.format(e))

--------------------------------------------------------------------------

    Molecular point group: cs

    Geometry (in Angstrom), charge = 0, multiplicity = 3:

       Center              X                  Y                   Z               Mass
    ------------   -----------------  -----------------  -----------------  -----------------
         O           -1.558088525294    -0.023120912104     0.000000000000    15.994914619570
         H           -0.595019690094    -0.015116889232     0.000000000000     1.007825032230
         H           -1.819321420177     0.899205370870     0.000000000000     1.007825032230
         O            1.710213964231    -0.032584699566     0.000000000000    15.994914619570

  Charge       = 0
  Multiplicity = 3
  Basis Set: AUG-CC-PVTZ
    Blend: AUG-CC-PVTZ

    Orbital Energies [Eh]
    ---------------------

    Alpha Occupied:

       1Ap   -20.733464     2Ap   -20.558933     3Ap    -1.442559
       4Ap    -1.343548     5Ap    -0.733245     1App   -0.733123
       6Ap    -0.712119     7Ap    -0.635580     8Ap    -0.574138
       2App   -0.502317

    Alpha Virtual:

       9Ap     0.034512    10Ap     0.053290    11Ap     0.127941
       3App    0.131778    12Ap     0.148018    13Ap     0.160941
      14Ap     0.183138     4App    0.185163    15Ap     0.210010
      16Ap     0.240104    17Ap     0.270455     5App    0.282165
      18Ap     0.293221     6App    0.322318    19Ap     0.368358
      20Ap     0.390809    21Ap     0.459638    22Ap     0.558587
       7App    0.601022    23Ap     0.607996    24Ap     0.645663
      25Ap     0.666325     8App    0.704237    26Ap     0.713263
       9App    0.734129    10App    0.746708    27Ap     0.763788
      28Ap     0.794646    11App    0.824396    29Ap     0.846943
      30Ap     0.859442    12App    0.880017    31Ap     0.919669
      32Ap     0.939168    13App    0.942349    33Ap     0.953767
      14App    0.980155    34Ap     0.986056    35Ap     1.043203
      36Ap     1.118927    37Ap     1.171944    15App    1.172033
      38Ap     1.193887    16App    1.243956    39Ap     1.268878
      40Ap     1.305359    17App    1.527327    41Ap     1.558239
      18App    1.600522    42Ap     1.665679    43Ap     1.806117
      44Ap     1.815974    19App    1.976713    45Ap     1.976763
      46Ap     2.001975    20App    2.010846    47Ap     2.019325
      21App    2.042320    48Ap     2.054609    22App    2.112496
      49Ap     2.151617    50Ap     2.159007    23App    2.194542
      51Ap     2.282981    24App    2.291630    52Ap     2.326249
      53Ap     2.401841    25App    2.440893    54Ap     2.458683
      26App    2.500069    55Ap     2.514502    56Ap     2.597226
      57Ap     2.665339    27App    2.727850    58Ap     2.742732
      59Ap     2.866044    60Ap     2.941158    28App    2.944725
      61Ap     3.696544    62Ap     3.868254    29App    4.029426
      30App    4.056753    63Ap     4.074068    31App    4.165377
      64Ap     4.206806    65Ap     4.267468    32App    4.310949
      66Ap     4.377191    33App    4.392907    34App    4.435869
      67Ap     4.441054    68Ap     4.566626    69Ap     4.777647
      70Ap     4.948621    35App    5.161305    71Ap     5.171054
      72Ap     5.317119    73Ap     5.376793    36App    5.525593
      74Ap     5.702802    75Ap     6.186799    37App    6.311619
      76Ap     6.311650    38App    6.370137    77Ap     6.372435
      39App    6.501943    78Ap     6.518200    79Ap     6.546938
      80Ap     6.617551    40App    6.721683    81Ap     6.812716
      41App    6.818428    82Ap     6.902908    42App    6.930939
      83Ap     6.961105    84Ap     7.046635    43App    7.147798
      44App    7.274511    45App    7.325091    85Ap     7.332543
      86Ap     7.358948    46App    7.434144    87Ap     7.659575
      88Ap     7.946789    89Ap     7.964414    90Ap     8.808333
      91Ap     9.260459    92Ap    16.510597

    Beta Occupied:

       1Ap   -20.654693     2Ap   -20.559047     3Ap    -1.344024
       4Ap    -1.100065     5Ap    -0.711565     6Ap    -0.579258
       7Ap    -0.541600     1App   -0.502368

    Beta Virtual:

       8Ap     0.034268     9Ap     0.046635     2App    0.048529
      10Ap     0.057899    11Ap     0.144078    12Ap     0.151240
       3App    0.160125    13Ap     0.179638    14Ap     0.209475
      15Ap     0.217912     4App    0.226335    16Ap     0.249473
      17Ap     0.272481     5App    0.282457    18Ap     0.295618
       6App    0.325155    19Ap     0.371922    20Ap     0.400133
      21Ap     0.460263    22Ap     0.561189     7App    0.633485
      23Ap     0.638621    24Ap     0.648377    25Ap     0.669468
      26Ap     0.713966     8App    0.717968     9App    0.735256
      10App    0.748029    27Ap     0.780823    28Ap     0.806410
      29Ap     0.852292    11App    0.864270    30Ap     0.915732
      12App    0.933015    31Ap     0.939349    13App    0.950024
      32Ap     0.950210    33Ap     0.974436    34Ap     1.014052
      14App    1.023990    35Ap     1.046031    36Ap     1.135288
      15App    1.175347    37Ap     1.178290    38Ap     1.230288
      16App    1.254511    39Ap     1.270526    40Ap     1.316066
      17App    1.528177    41Ap     1.564974    18App    1.601871
      42Ap     1.694869    43Ap     1.810344    44Ap     1.820176
      45Ap     2.011909    19App    2.014843    46Ap     2.015141
      20App    2.047093    47Ap     2.059971    21App    2.156782
      22App    2.179135    48Ap     2.179785    49Ap     2.196896
      50Ap     2.209550    23App    2.236119    24App    2.293414
      51Ap     2.307616    52Ap     2.335589    53Ap     2.412042
      25App    2.443208    54Ap     2.459670    26App    2.508813
      55Ap     2.522136    56Ap     2.603420    57Ap     2.675048
      27App    2.728785    58Ap     2.747805    59Ap     2.870472
      60Ap     2.943678    28App    2.945432    61Ap     3.696998
      62Ap     3.870303    29App    4.029766    30App    4.142025
      63Ap     4.190138    64Ap     4.242463    31App    4.250268
      65Ap     4.285038    32App    4.311031    33App    4.393089
      66Ap     4.394862    34App    4.437416    67Ap     4.469713
      68Ap     4.567554    69Ap     4.779303    70Ap     4.950286
      35App    5.161285    71Ap     5.171479    72Ap     5.317326
      73Ap     5.377663    36App    5.525631    74Ap     5.703300
      75Ap     6.187352    37App    6.420583    76Ap     6.420603
      38App    6.445836    77Ap     6.448335    78Ap     6.533811
      39App    6.557284    79Ap     6.587137    80Ap     6.664443
      40App    6.725267    81Ap     6.903252    41App    7.005016
      82Ap     7.005626    42App    7.039351    83Ap     7.067983
      84Ap     7.127693    43App    7.150061    44App    7.274931
      45App    7.325861    85Ap     7.332536    86Ap     7.359444
      46App    7.434592    87Ap     7.661332    88Ap     7.947081
      89Ap     7.964642    90Ap     8.810711    91Ap     9.335168
      92Ap    16.511068

    Final Occupation by Irrep:
             Ap   App
    DOCC [     7,    1 ]
    SOCC [     1,    1 ]

  @UHF Final Energy:  -150.87472222225836

   => Energetics <=

    Nuclear Repulsion Energy =             22.5165340654901662
    One-Electron Energy =                -252.8208640872357478
    Two-Electron Energy =                  79.4296077994872434
    Total Energy =                       -150.8747222222583559

  UHF NO Occupations:
  HONO-2 :    7 Ap 1.9970326
  HONO-1 :    2App 1.0000000
  HONO-0 :    8 Ap 1.0000000
  LUNO+0 :    9 Ap 0.0029674
  LUNO+1 :   10 Ap 0.0017233
  LUNO+2 :   11 Ap 0.0000024
  LUNO+3 :   12 Ap 0.0000014

Computation Completed

Properties will be evaluated at   0.000000,   0.000000,   0.000000 [a0]

Properties computed using the SCF density matrix

  Nuclear Dipole Moment: [e a0]
     X:    -2.2626      Y:     0.8285      Z:     0.0000

  Electronic Dipole Moment: [e a0]
     X:     2.8151      Y:    -0.2173      Z:     0.0000

  Dipole Moment: [e a0]
     X:     0.5524      Y:     0.6112      Z:     0.0000     Total:     0.8239

  Dipole Moment: [D]
     X:     1.4041      Y:     1.5536      Z:     0.0000     Total:     2.0941

*** tstop() called on d1-14.compute.lan at Tue Mar  9 14:40:37 2021
Module time:
	user time   =      52.29 seconds =       0.87 minutes
	system time =       3.30 seconds =       0.06 minutes
	total time  =          7 seconds =       0.12 minutes
Total time:
	user time   =      52.29 seconds =       0.87 minutes
	system time =       3.30 seconds =       0.06 minutes
	total time  =          7 seconds =       0.12 minutes
 MINTS: Wrapper to libmints.
   by Justin Turney

   Calculation information:
      Number of threads:                12
      Number of atoms:                   4
      Number of AO shells:              46
      Number of SO shells:              46
      Number of primitives:             82
      Number of atomic orbitals:       160
      Number of basis functions:       138

      Number of irreps:                  2
      Integral cutoff                 0.00e+00
      Number of functions per irrep: [  92   46 ]

 OEINTS: Overlap, kinetic, potential, dipole, and quadrupole integrals
         stored in file 35.

      Computing two-electron integrals...done
      Computed 22939529 non-zero two-electron integrals.
        Stored in file 33.

*** tstart() called on d1-14.compute.lan
*** at Tue Mar  9 14:40:42 2021

	Wfn Parameters:
	--------------------
	Wavefunction         = CCSD_T
	Number of irreps     = 2
	Number of MOs        = 138
	Number of active MOs = 136
	AO-Basis             = NONE
	Semicanonical        = false
	Reference            = UHF
	Print Level          = 1

	IRREP	# MOs	# FZDC	# DOCC	# SOCC	# VIRT	# FZVR
	-----	-----	------	------	------	------	------
	 Ap	   92	    2	    5	    1	    84	    0
	 App	   46	    0	    1	    1	    44	    0
	Transforming integrals...
	IWL integrals will be deleted.
	(OO|OO)...
	Presorting SO-basis two-electron integrals.
	Sorting File: SO Ints (nn|nn) nbuckets = 1
	Transforming the one-electron integrals and constructing Fock matrices
	Starting AA/AB first half-transformation.
	Sorting AA/AB half-transformed integrals.
	Starting BB first half-transformation.
	Sorting BB half-transformed integrals.
	First half integral transformation complete.
	Starting AA second half-transformation.
	Starting AB second half-transformation.
	Starting BB second half-transformation.
	Two-electron integral transformation complete.
	(OO|OV)...
	Starting AA second half-transformation.
	Starting AB second half-transformation.
	Starting BB second half-transformation.
	Two-electron integral transformation complete.
	(OO|VV)...
	Starting AA second half-transformation.
	Starting AB second half-transformation.
	Starting BB second half-transformation.
	Two-electron integral transformation complete.
	(OV|OO)...
	Starting AA/AB first half-transformation.
	Sorting AA/AB half-transformed integrals.
	Starting BB first half-transformation.
	Sorting BB half-transformed integrals.
	First half integral transformation complete.
	Starting AA second half-transformation.
	Starting AB second half-transformation.
	Starting BB second half-transformation.
	Two-electron integral transformation complete.
	(OV|OV)...
	Starting AA second half-transformation.
	Starting AB second half-transformation.
	Starting BB second half-transformation.
	Two-electron integral transformation complete.
	(OV|VV)...
	Starting AA second half-transformation.
	Starting AB second half-transformation.
	Starting BB second half-transformation.
	Two-electron integral transformation complete.
	(VV|OO)...
	Starting AA/AB first half-transformation.
	Sorting AA/AB half-transformed integrals.
	Starting BB first half-transformation.
	Sorting BB half-transformed integrals.
	First half integral transformation complete.
	Starting AA second half-transformation.
	Starting AB second half-transformation.
	Starting BB second half-transformation.
	Two-electron integral transformation complete.
	(VV|OV)...
	Starting AA second half-transformation.
	Starting AB second half-transformation.
	Starting BB second half-transformation.
	Two-electron integral transformation complete.
	(VV|VV)...
	Starting AA second half-transformation.
	Starting AB second half-transformation.
	Starting BB second half-transformation.
	Two-electron integral transformation complete.
	Frozen core energy     =   -125.69645140871143

	Size of irrep 0 of <AB|CD> integrals:     19.643 (MW) /    157.141 (MB)
	Size of irrep 1 of <AB|CD> integrals:     13.660 (MW) /    109.283 (MB)
	Total:                                    33.303 (MW) /    266.424 (MB)

	Size of irrep 0 of <ab|cd> integrals:     20.794 (MW) /    166.349 (MB)
	Size of irrep 1 of <ab|cd> integrals:     14.631 (MW) /    117.045 (MB)
	Total:                                    35.424 (MW) /    283.394 (MB)

	Size of irrep 0 of <Ab|Cd> integrals:     83.174 (MW) /    665.395 (MB)
	Size of irrep 1 of <Ab|Cd> integrals:     56.550 (MW) /    452.403 (MB)
	Total:                                   139.725 (MW) /   1117.798 (MB)

	Size of irrep 0 of <IA|BC> integrals:      5.323 (MW) /     42.586 (MB)
	Size of irrep 1 of <IA|BC> integrals:      3.193 (MW) /     25.547 (MB)
	Total:                                     8.517 (MW) /     68.133 (MB)

	Size of irrep 0 of <ia|bc> integrals:      4.348 (MW) /     34.780 (MB)
	Size of irrep 1 of <ia|bc> integrals:      2.372 (MW) /     18.972 (MB)
	Total:                                     6.719 (MW) /     53.752 (MB)

	Size of irrep 0 of <Ia|Bc> integrals:      5.472 (MW) /     43.776 (MB)
	Size of irrep 1 of <Ia|Bc> integrals:      3.309 (MW) /     26.470 (MB)
	Total:                                     8.781 (MW) /     70.246 (MB)

	Size of irrep 0 of <iA|bC> integrals:      4.232 (MW) /     33.853 (MB)
	Size of irrep 1 of <iA|bC> integrals:      2.286 (MW) /     18.289 (MB)
	Total:                                     6.518 (MW) /     52.142 (MB)

	Size of irrep 0 of tIjAb amplitudes:       0.292 (MW) /      2.335 (MB)
	Size of irrep 1 of tIjAb amplitudes:       0.120 (MW) /      0.963 (MB)
	Total:                                     0.412 (MW) /      3.297 (MB)

	Nuclear Rep. energy          =     22.51653406549017
	SCF energy                   =   -150.87472222225836
	One-electron energy          =    -83.93409929099158
	Two-electron (AA) energy     =     10.05760027300228
	Two-electron (BB) energy     =      5.35251942231783
	Two-electron (AB) energy     =     20.82917471663207
	Two-electron energy          =     36.23929441195219
	Reference energy             =   -150.87472222226069

*** tstop() called on d1-14.compute.lan at Tue Mar  9 14:41:50 2021
Module time:
	user time   =     370.63 seconds =       6.18 minutes
	system time =      73.00 seconds =       1.22 minutes
	total time  =         68 seconds =       1.13 minutes
Total time:
	user time   =     429.38 seconds =       7.16 minutes
	system time =      77.21 seconds =       1.29 minutes
	total time  =         80 seconds =       1.33 minutes
            **************************
            *                        *
            *        CCENERGY        *
            *                        *
            **************************

    Nuclear Rep. energy (wfn)     =   22.516534065490166
    SCF energy          (wfn)     = -150.874722222258356
    Reference energy    (file100) = -150.874722222260687

    Input parameters:
    -----------------
    Wave function   =     CCSD_T
    Reference wfn   =     UHF
    Brueckner       =     No
    Memory (Mbytes) =     4000.0
    Maxiter         =     50
    R_Convergence   =     1.0e-10
    E_Convergence   =     1.0e-10
    Restart         =     Yes
    DIIS            =     Yes
    AO Basis        =     NONE
    ABCD            =     NEW
    Cache Level     =     2
    Cache Type      =     LRU
    Print Level     =     1
    Num. of threads =     12
    # Amps to Print =     10
    Print MP2 Amps? =     No
    Analyze T2 Amps =     No
    Print Pair Ener =     No
    Local CC        =     No
    SCS-MP2         =     False
    SCSN-MP2        =     False
    SCS-CCSD        =     False

MP2 correlation energy -0.4162209859515656
                Solving CC Amplitude Equations
                ------------------------------
  Iter             Energy              RMS        T1Diag      D1Diag    New D1Diag    D2Diag
  ----     ---------------------    ---------   ----------  ----------  ----------   --------
     0        -0.416220985951566    0.000e+00    0.000000    0.000000    0.000000    0.000000
     1        -0.427018868457141    5.666e-02    0.010485    0.000000    0.000000    0.000000
     2        -0.435088679867819    1.683e-02    0.010971    0.000000    0.000000    0.000000
     3        -0.437198168207367    8.511e-03    0.012823    0.000000    0.000000    0.000000
     4        -0.437072921830136    2.523e-03    0.013182    0.000000    0.000000    0.000000
     5        -0.437059312770696    1.300e-03    0.013333    0.000000    0.000000    0.000000
     6        -0.437086021844820    5.081e-04    0.013351    0.000000    0.000000    0.000000
     7        -0.437090595761422    2.493e-04    0.013344    0.000000    0.000000    0.000000
     8        -0.437091227718326    8.627e-05    0.013338    0.000000    0.000000    0.000000
     9        -0.437092560075003    5.935e-05    0.013339    0.000000    0.000000    0.000000
    10        -0.437091186264051    4.977e-05    0.013339    0.000000    0.000000    0.000000
    11        -0.437091281943874    4.751e-05    0.013340    0.000000    0.000000    0.000000
    12        -0.437091101710686    4.627e-05    0.013341    0.000000    0.000000    0.000000
    13        -0.437091058057207    4.546e-05    0.013343    0.000000    0.000000    0.000000
    14        -0.437091781813597    4.431e-05    0.013351    0.000000    0.000000    0.000000
    15        -0.437092015620081    4.091e-05    0.013380    0.000000    0.000000    0.000000
    16        -0.437091844927495    3.129e-05    0.013479    0.000000    0.000000    0.000000
    17        -0.437091630236243    1.675e-05    0.013546    0.000000    0.000000    0.000000
    18        -0.437091516999386    7.878e-06    0.013568    0.000000    0.000000    0.000000
    19        -0.437091754964366    3.420e-06    0.013574    0.000000    0.000000    0.000000
    20        -0.437091866973929    1.521e-06    0.013575    0.000000    0.000000    0.000000
    21        -0.437091872290913    5.803e-07    0.013575    0.000000    0.000000    0.000000
    22        -0.437091872319659    2.381e-07    0.013575    0.000000    0.000000    0.000000
    23        -0.437091872059428    1.132e-07    0.013575    0.000000    0.000000    0.000000
    24        -0.437091871734013    4.246e-08    0.013575    0.000000    0.000000    0.000000
    25        -0.437091872557628    2.120e-08    0.013575    0.000000    0.000000    0.000000
    26        -0.437091872918208    1.181e-08    0.013575    0.000000    0.000000    0.000000
    27        -0.437091873001248    9.619e-09    0.013575    0.000000    0.000000    0.000000
    28        -0.437091872996321    9.023e-09    0.013575    0.000000    0.000000    0.000000
    29        -0.437091872941453    8.567e-09    0.013575    0.000000    0.000000    0.000000
    30        -0.437091872830440    7.990e-09    0.013575    0.000000    0.000000    0.000000
    31        -0.437091872870222    6.549e-09    0.013575    0.000000    0.000000    0.000000
    32        -0.437091873011466    3.945e-09    0.013575    0.000000    0.000000    0.000000
    33        -0.437091873050490    1.694e-09    0.013575    0.000000    0.000000    0.000000
    34        -0.437091873068208    7.399e-10    0.013575    0.000000    0.000000    0.000000
    35        -0.437091873069864    3.298e-10    0.013575    0.000000    0.000000    0.000000
    36        -0.437091873067953    1.300e-10    0.013575    0.000000    0.000000    0.000000

      * MP2 total energy                      = -151.290943208212241
      * CCSD total energy                     = -151.311814095327350
      * CCSD(T) total energy                     = -151.324118553854191
*** Psi4 exiting successfully. Buy a developer a beer!
