                               Psi4 1.3.2 release

  ==> Input File <==

--------------------------------------------------------------------------
memory 4 GB

molecule  {
0 3
O    0.000000000000    0.000000000000   -1.503956029000
H    0.000000000000   -0.748606484000   -0.893322048100
H   -0.000000000000    0.748606484000   -0.893322048100
O    0.000000000000    0.000000000000    1.616530849600
}
set {
basis aug-cc-pvtz
reference uhf
e_convergence 10
scf_type pk
freeze_core true
}

set ccenergy {
e_convergence 10
r_convergence 10
}

e = energy('ccsd(t)')

print_out('Stephenergy {}'.format(e))

--------------------------------------------------------------------------

    Molecular point group: c2v

    Geometry (in Angstrom), charge = 0, multiplicity = 3:

       Center              X                  Y                   Z               Mass
    ------------   -----------------  -----------------  -----------------  -----------------
         O            0.000000000000     0.000000000000    -1.503956028999    15.994914619570
         H            0.000000000000    -0.748606484000    -0.893322048099     1.007825032230
         H           -0.000000000000     0.748606484000    -0.893322048099     1.007825032230
         O            0.000000000000     0.000000000000     1.616530849601    15.994914619570

  Charge       = 0
  Multiplicity = 3
  Basis Set: AUG-CC-PVTZ
    Blend: AUG-CC-PVTZ

    Orbital Energies [Eh]
    ---------------------

    Alpha Occupied:

       1A1   -20.732323     2A1   -20.562104     3A1    -1.442023
       4A1    -1.343958     1B2    -0.733490     1B1    -0.732695
       2B2    -0.700172     5A1    -0.639154     6A1    -0.578507
       2B1    -0.503491

    Alpha Virtual:

       7A1     0.035925     3B2     0.048667     3B1     0.131163
       8A1     0.131804     9A1     0.151643     4B2     0.159054
       4B1     0.184954     5B2     0.185971    10A1     0.191030
      11A1     0.261318     6B2     0.262478     1A2     0.266036
      12A1     0.275375     5B1     0.324662    13A1     0.380962
       7B2     0.385642    14A1     0.454259     8B2     0.473878
       2A2     0.611577    15A1     0.626970     9B2     0.627280
      16A1     0.639328     6B1     0.649806    17A1     0.716706
       3A2     0.732394    10B2     0.747778     7B1     0.759020
      18A1     0.786089     8B1     0.829363    11B2     0.849832
      19A1     0.858018     9B1     0.919868    12B2     0.943200
       4A2     0.945570    20A1     0.960512    21A1     0.981600
      10B1     0.991449    13B2     1.003332    22A1     1.057789
      14B2     1.060562    11B1     1.156729     5A2     1.193695
      23A1     1.201022    24A1     1.239640    15B2     1.271464
      16B2     1.324652    25A1     1.420315     6A2     1.508876
      12B1     1.584275    26A1     1.729103    27A1     1.838986
      17B2     1.849562    18B2     1.961624    13B1     1.976238
      28A1     2.006949    19B2     2.007173     7A2     2.017608
      14B1     2.037131    29A1     2.043234     8A2     2.068724
      30A1     2.095108    20B2     2.109622    15B1     2.149397
      31A1     2.201088    16B1     2.305995    21B2     2.322343
       9A2     2.341245    32A1     2.378409    33A1     2.413592
      34A1     2.486033    22B2     2.523907    17B1     2.550574
      35A1     2.604105    23B2     2.698641    18B1     2.726622
      36A1     2.844924    10A2     2.889878    24B2     2.901296
      25B2     3.671244    37A1     3.734277    11A2     4.045263
      19B1     4.053694    20B1     4.109372    26B2     4.115887
      38A1     4.214879    21B1     4.260490    27B2     4.278361
      39A1     4.303869    12A2     4.385115    22B1     4.419964
      40A1     4.500199    28B2     4.543670    41A1     4.765027
      29B2     4.857498    13A2     5.135618    30B2     5.185189
      31B2     5.229591    42A1     5.359835    23B1     5.523342
      43A1     5.653176    44A1     6.212638    24B1     6.312538
      32B2     6.314979    14A2     6.384726    45A1     6.396769
      25B1     6.419049    33B2     6.491091    46A1     6.509354
      34B2     6.545932    26B1     6.767318    15A2     6.821186
      47A1     6.823431    27B1     6.940081    48A1     6.945258
      35B2     6.978565    49A1     7.039911    28B1     7.135027
      29B1     7.263703    16A2     7.313869    36B2     7.329630
      17A2     7.356896    50A1     7.388502    51A1     7.549028
      52A1     7.879574    37B2     7.941890    53A1     8.778084
      38B2     8.805840    54A1    15.631445

    Beta Occupied:

       1A1   -20.653829     2A1   -20.562175     3A1    -1.344373
       4A1    -1.099936     1B2    -0.700517     5A1    -0.589615
       6A1    -0.539040     1B1    -0.503426

    Beta Virtual:

       2B2     0.033122     7A1     0.037183     2B1     0.047450
       3B2     0.069384     8A1     0.137387     9A1     0.154193
       3B1     0.161305     4B2     0.179714    10A1     0.191468
       4B1     0.225770     5B2     0.226054     6B2     0.264982
       1A2     0.266606    11A1     0.269323    12A1     0.278997
       5B1     0.326403    13A1     0.384605     7B2     0.393694
      14A1     0.455935     8B2     0.474344     9B2     0.628759
      15A1     0.641261     2A2     0.643534    16A1     0.660033
       6B1     0.660354    17A1     0.717686     3A2     0.733582
      10B2     0.761179     7B1     0.763117    18A1     0.800778
      19A1     0.862466     8B1     0.910263     9B1     0.937875
      11B2     0.939718     4A2     0.948068    12B2     0.952772
      20A1     0.962282    21A1     0.987266    13B2     1.031443
      10B1     1.036922    22A1     1.059677    14B2     1.069858
      11B1     1.168715     5A2     1.194729    23A1     1.205441
      15B2     1.271592    24A1     1.282307    16B2     1.342924
      25A1     1.443952     6A2     1.509185    12B1     1.584637
      26A1     1.749096    27A1     1.842551    17B2     1.850751
      18B2     1.973503    13B1     2.013634    28A1     2.032295
      19B2     2.033031    14B1     2.063921     7A2     2.070284
      29A1     2.102170    20B2     2.165804     8A2     2.186332
      30A1     2.187596    15B1     2.206892    31A1     2.243274
      16B1     2.315476     9A2     2.346388    21B2     2.354850
      32A1     2.382551    33A1     2.433108    34A1     2.487042
      22B2     2.531832    17B1     2.555458    35A1     2.608078
      23B2     2.699250    18B1     2.726800    36A1     2.845760
      10A2     2.889947    24B2     2.902834    25B2     3.671720
      37A1     3.734702    11A2     4.045411    19B1     4.104390
      38A1     4.220063    20B1     4.227929    21B1     4.262465
      26B2     4.268108    27B2     4.292854    39A1     4.320798
      12A2     4.385188    22B1     4.420810    40A1     4.525326
      28B2     4.545257    41A1     4.765967    29B2     4.858110
      13A2     5.135671    30B2     5.185256    31B2     5.229730
      42A1     5.360278    23B1     5.523349    43A1     5.653466
      44A1     6.217884    24B1     6.421184    32B2     6.423297
      14A2     6.461196    45A1     6.469593    25B1     6.473158
      33B2     6.507688    46A1     6.555322    34B2     6.586145
      26B1     6.774816    47A1     6.947799    15A2     7.009715
      48A1     7.013997    27B1     7.045423    35B2     7.087237
      49A1     7.116986    28B1     7.136476    29B1     7.263776
      16A2     7.313913    36B2     7.330498    17A2     7.357066
      50A1     7.389795    51A1     7.550677    52A1     7.879752
      37B2     7.941897    38B2     8.805709    53A1     8.859392
      54A1    15.631452

    Final Occupation by Irrep:
             A1    A2    B1    B2
    DOCC [     6,    0,    1,    1 ]
    SOCC [     0,    0,    1,    1 ]

  @UHF Final Energy:  -150.87198197955240

   => Energetics <=

    Nuclear Repulsion Energy =             23.2036028837454182
    One-Electron Energy =                -254.1903422931962950
    Two-Electron Energy =                  80.1147574298984892
    Total Energy =                       -150.8719819795524018

  UHF NO Occupations:
  HONO-2 :    6 A1 1.9970821
  HONO-1 :    2 B2 1.0000000
  HONO-0 :    2 B1 1.0000000
  LUNO+0 :    7 A1 0.0029179
  LUNO+1 :    8 A1 0.0016287
  LUNO+2 :    9 A1 0.0000024
  LUNO+3 :   10 A1 0.0000015

Computation Completed

Properties will be evaluated at   0.000000,   0.000000,   0.000000 [a0]

Properties computed using the SCF density matrix

  Nuclear Dipole Moment: [e a0]
     X:     0.0000      Y:     0.0000      Z:    -1.6744

  Electronic Dipole Moment: [e a0]
     X:     0.0000      Y:     0.0000      Z:     2.5358

  Dipole Moment: [e a0]
     X:     0.0000      Y:     0.0000      Z:     0.8614     Total:     0.8614

  Dipole Moment: [D]
     X:     0.0000      Y:     0.0000      Z:     2.1895     Total:     2.1895

*** tstop() called on b1-8.compute.lan at Wed Mar 10 09:31:58 2021
Module time:
	user time   =      36.61 seconds =       0.61 minutes
	system time =       0.98 seconds =       0.02 minutes
	total time  =          4 seconds =       0.07 minutes
Total time:
	user time   =      36.61 seconds =       0.61 minutes
	system time =       0.98 seconds =       0.02 minutes
	total time  =          4 seconds =       0.07 minutes
 MINTS: Wrapper to libmints.
   by Justin Turney

   Calculation information:
      Number of threads:                12
      Number of atoms:                   4
      Number of AO shells:              46
      Number of SO shells:              37
      Number of primitives:             82
      Number of atomic orbitals:       160
      Number of basis functions:       138

      Number of irreps:                  4
      Integral cutoff                 0.00e+00
      Number of functions per irrep: [  54   17   29   38 ]

 OEINTS: Overlap, kinetic, potential, dipole, and quadrupole integrals
         stored in file 35.

      Computing two-electron integrals...done
      Computed 11332089 non-zero two-electron integrals.
        Stored in file 33.

*** tstart() called on b1-8.compute.lan
*** at Wed Mar 10 09:32:00 2021

	Wfn Parameters:
	--------------------
	Wavefunction         = CCSD_T
	Number of irreps     = 4
	Number of MOs        = 138
	Number of active MOs = 136
	AO-Basis             = NONE
	Semicanonical        = false
	Reference            = UHF
	Print Level          = 1

	IRREP	# MOs	# FZDC	# DOCC	# SOCC	# VIRT	# FZVR
	-----	-----	------	------	------	------	------
	 A1	   54	    2	    4	    0	    48	    0
	 A2	   17	    0	    0	    0	    17	    0
	 B1	   29	    0	    1	    1	    27	    0
	 B2	   38	    0	    1	    1	    36	    0
	Transforming integrals...
	IWL integrals will be deleted.
	(OO|OO)...
	Presorting SO-basis two-electron integrals.
	Sorting File: SO Ints (nn|nn) nbuckets = 1
	Transforming the one-electron integrals and constructing Fock matrices
	Starting AA/AB first half-transformation.
	Sorting AA/AB half-transformed integrals.
	Starting BB first half-transformation.
	Sorting BB half-transformed integrals.
	First half integral transformation complete.
	Starting AA second half-transformation.
	Starting AB second half-transformation.
	Starting BB second half-transformation.
	Two-electron integral transformation complete.
	(OO|OV)...
	Starting AA second half-transformation.
	Starting AB second half-transformation.
	Starting BB second half-transformation.
	Two-electron integral transformation complete.
	(OO|VV)...
	Starting AA second half-transformation.
	Starting AB second half-transformation.
	Starting BB second half-transformation.
	Two-electron integral transformation complete.
	(OV|OO)...
	Starting AA/AB first half-transformation.
	Sorting AA/AB half-transformed integrals.
	Starting BB first half-transformation.
	Sorting BB half-transformed integrals.
	First half integral transformation complete.
	Starting AA second half-transformation.
	Starting AB second half-transformation.
	Starting BB second half-transformation.
	Two-electron integral transformation complete.
	(OV|OV)...
	Starting AA second half-transformation.
	Starting AB second half-transformation.
	Starting BB second half-transformation.
	Two-electron integral transformation complete.
	(OV|VV)...
	Starting AA second half-transformation.
	Starting AB second half-transformation.
	Starting BB second half-transformation.
	Two-electron integral transformation complete.
	(VV|OO)...
	Starting AA/AB first half-transformation.
	Sorting AA/AB half-transformed integrals.
	Starting BB first half-transformation.
	Sorting BB half-transformed integrals.
	First half integral transformation complete.
	Starting AA second half-transformation.
	Starting AB second half-transformation.
	Starting BB second half-transformation.
	Two-electron integral transformation complete.
	(VV|OV)...
	Starting AA second half-transformation.
	Starting AB second half-transformation.
	Starting BB second half-transformation.
	Two-electron integral transformation complete.
	(VV|VV)...
	Starting AA second half-transformation.
	Starting AB second half-transformation.
	Starting BB second half-transformation.
	Two-electron integral transformation complete.
	Frozen core energy     =   -125.95856164600880

	Size of irrep 0 of <AB|CD> integrals:      5.040 (MW) /     40.320 (MB)
	Size of irrep 1 of <AB|CD> integrals:      3.197 (MW) /     25.576 (MB)
	Size of irrep 2 of <AB|CD> integrals:      3.640 (MW) /     29.124 (MB)
	Size of irrep 3 of <AB|CD> integrals:      4.783 (MW) /     38.264 (MB)
	Total:                                    16.660 (MW) /    133.283 (MB)

	Size of irrep 0 of <ab|cd> integrals:      5.327 (MW) /     42.615 (MB)
	Size of irrep 1 of <ab|cd> integrals:      3.430 (MW) /     27.439 (MB)
	Size of irrep 2 of <ab|cd> integrals:      3.893 (MW) /     31.142 (MB)
	Size of irrep 3 of <ab|cd> integrals:      5.072 (MW) /     40.572 (MB)
	Total:                                    17.721 (MW) /    141.768 (MB)

	Size of irrep 0 of <Ab|Cd> integrals:     21.912 (MW) /    175.294 (MB)
	Size of irrep 1 of <Ab|Cd> integrals:     13.242 (MW) /    105.939 (MB)
	Size of irrep 2 of <Ab|Cd> integrals:     15.062 (MW) /    120.497 (MB)
	Size of irrep 3 of <Ab|Cd> integrals:     19.705 (MW) /    157.638 (MB)
	Total:                                    69.921 (MW) /    559.368 (MB)

	Size of irrep 0 of <IA|BC> integrals:      1.469 (MW) /     11.748 (MB)
	Size of irrep 1 of <IA|BC> integrals:      0.694 (MW) /      5.550 (MB)
	Size of irrep 2 of <IA|BC> integrals:      0.908 (MW) /      7.266 (MB)
	Size of irrep 3 of <IA|BC> integrals:      1.198 (MW) /      9.588 (MB)
	Total:                                     4.269 (MW) /     34.152 (MB)

	Size of irrep 0 of <ia|bc> integrals:      1.220 (MW) /      9.758 (MB)
	Size of irrep 1 of <ia|bc> integrals:      0.493 (MW) /      3.941 (MB)
	Size of irrep 2 of <ia|bc> integrals:      0.698 (MW) /      5.588 (MB)
	Size of irrep 3 of <ia|bc> integrals:      0.959 (MW) /      7.675 (MB)
	Total:                                     3.370 (MW) /     26.961 (MB)

	Size of irrep 0 of <Ia|Bc> integrals:      1.507 (MW) /     12.058 (MB)
	Size of irrep 1 of <Ia|Bc> integrals:      0.721 (MW) /      5.764 (MB)
	Size of irrep 2 of <Ia|Bc> integrals:      0.939 (MW) /      7.514 (MB)
	Size of irrep 3 of <Ia|Bc> integrals:      1.234 (MW) /      9.872 (MB)
	Total:                                     4.401 (MW) /     35.208 (MB)

	Size of irrep 0 of <iA|bC> integrals:      1.194 (MW) /      9.549 (MB)
	Size of irrep 1 of <iA|bC> integrals:      0.477 (MW) /      3.814 (MB)
	Size of irrep 2 of <iA|bC> integrals:      0.671 (MW) /      5.371 (MB)
	Size of irrep 3 of <iA|bC> integrals:      0.928 (MW) /      7.422 (MB)
	Total:                                     3.270 (MW) /     26.156 (MB)

	Size of irrep 0 of tIjAb amplitudes:       0.094 (MW) /      0.749 (MB)
	Size of irrep 1 of tIjAb amplitudes:       0.015 (MW) /      0.116 (MB)
	Size of irrep 2 of tIjAb amplitudes:       0.047 (MW) /      0.373 (MB)
	Size of irrep 3 of tIjAb amplitudes:       0.053 (MW) /      0.426 (MB)
	Total:                                     0.208 (MW) /      1.664 (MB)

	Nuclear Rep. energy          =     23.20360288374542
	SCF energy                   =   -150.87198197955240
	One-electron energy          =    -84.78364887637616
	Two-electron (AA) energy     =     10.20029175577684
	Two-electron (BB) energy     =      5.42360422055993
	Two-electron (AB) energy     =     21.04272968274934
	Two-electron energy          =     36.66662565908611
	Reference energy             =   -150.87198197955342

*** tstop() called on b1-8.compute.lan at Wed Mar 10 09:32:21 2021
Module time:
	user time   =     157.72 seconds =       2.63 minutes
	system time =       7.58 seconds =       0.13 minutes
	total time  =         21 seconds =       0.35 minutes
Total time:
	user time   =     199.63 seconds =       3.33 minutes
	system time =       8.87 seconds =       0.15 minutes
	total time  =         27 seconds =       0.45 minutes
            **************************
            *                        *
            *        CCENERGY        *
            *                        *
            **************************

    Nuclear Rep. energy (wfn)     =   23.203602883745418
    SCF energy          (wfn)     = -150.871981979552402
    Reference energy    (file100) = -150.871981979553425

    Input parameters:
    -----------------
    Wave function   =     CCSD_T
    Reference wfn   =     UHF
    Brueckner       =     No
    Memory (Mbytes) =     4000.0
    Maxiter         =     50
    R_Convergence   =     1.0e-10
    E_Convergence   =     1.0e-10
    Restart         =     Yes
    DIIS            =     Yes
    AO Basis        =     NONE
    ABCD            =     NEW
    Cache Level     =     2
    Cache Type      =     LRU
    Print Level     =     1
    Num. of threads =     12
    # Amps to Print =     10
    Print MP2 Amps? =     No
    Analyze T2 Amps =     No
    Print Pair Ener =     No
    Local CC        =     No
    SCS-MP2         =     False
    SCSN-MP2        =     False
    SCS-CCSD        =     False

MP2 correlation energy -0.4167179592871385
                Solving CC Amplitude Equations
                ------------------------------
  Iter             Energy              RMS        T1Diag      D1Diag    New D1Diag    D2Diag
  ----     ---------------------    ---------   ----------  ----------  ----------   --------
     0        -0.416717959287139    0.000e+00    0.000000    0.000000    0.000000    0.000000
     1        -0.427451061362909    5.687e-02    0.010498    0.000000    0.000000    0.000000
     2        -0.435623770761765    1.692e-02    0.011026    0.000000    0.000000    0.000000
     3        -0.437733669960061    8.580e-03    0.012900    0.000000    0.000000    0.000000
     4        -0.437609526294506    2.519e-03    0.013269    0.000000    0.000000    0.000000
     5        -0.437592841667545    1.343e-03    0.013432    0.000000    0.000000    0.000000
     6        -0.437619943758262    5.210e-04    0.013460    0.000000    0.000000    0.000000
     7        -0.437624840005205    2.772e-04    0.013458    0.000000    0.000000    0.000000
     8        -0.437625381021382    8.662e-05    0.013454    0.000000    0.000000    0.000000
     9        -0.437626756556941    4.618e-05    0.013456    0.000000    0.000000    0.000000
    10        -0.437625143589370    2.265e-05    0.013457    0.000000    0.000000    0.000000
    11        -0.437625293579825    1.255e-05    0.013457    0.000000    0.000000    0.000000
    12        -0.437625242593512    5.448e-06    0.013458    0.000000    0.000000    0.000000
    13        -0.437625284733807    2.044e-06    0.013458    0.000000    0.000000    0.000000
    14        -0.437625350995152    8.163e-07    0.013458    0.000000    0.000000    0.000000
    15        -0.437625355750672    2.221e-07    0.013458    0.000000    0.000000    0.000000
    16        -0.437625356538165    1.205e-07    0.013458    0.000000    0.000000    0.000000
    17        -0.437625357748063    3.823e-08    0.013458    0.000000    0.000000    0.000000
    18        -0.437625357124696    1.787e-08    0.013458    0.000000    0.000000    0.000000

      * MP2 total energy                      = -151.288699938840551
      * CCSD total energy                     = -151.309607336543365
      * CCSD(T) total energy                     = -151.321964237663593
*** Psi4 exiting successfully. Buy a developer a beer!
