                               Psi4 1.3.2 release

  ==> Input File <==

--------------------------------------------------------------------------
memory 4 GB

molecule  {
0 3
O    0.000000000000    0.000000000000    1.252538719011
H    0.000000000000   -0.760529345832    1.843355421911
H   -0.000000000000    0.760529345832    1.843355421911
O    0.000000000000    0.000000000000   -1.484835018389
}
set {
basis aug-cc-pvtz
reference uhf
e_convergence 10
scf_type pk
freeze_core true
}

set ccenergy {
e_convergence 10
r_convergence 10
}

e = energy('ccsd(t)')

print_out('Stephenergy {}'.format(e))

--------------------------------------------------------------------------

    Molecular point group: c2v

    Geometry (in Angstrom), charge = 0, multiplicity = 3:

       Center              X                  Y                   Z               Mass
    ------------   -----------------  -----------------  -----------------  -----------------
         O            0.000000000000     0.000000000000     1.252538719011    15.994914619570
         H            0.000000000000    -0.760529345832     1.843355421911     1.007825032230
         H           -0.000000000000     0.760529345832     1.843355421911     1.007825032230
         O            0.000000000000     0.000000000000    -1.484835018389    15.994914619570

  Charge       = 0
  Multiplicity = 3
  Basis Set: AUG-CC-PVTZ
    Blend: AUG-CC-PVTZ

    Orbital Energies [Eh]
    ---------------------

    Alpha Occupied:

       1A1   -20.683767     2A1   -20.571593     3A1    -1.393329
       4A1    -1.354772     1B2    -0.717929     5A1    -0.688056
       1B1    -0.684569     6A1    -0.586082     2B2    -0.585577
       2B1    -0.514062

    Alpha Virtual:

       7A1     0.029537     3B2     0.047662     8A1     0.118138
       3B1     0.154395     9A1     0.159363     4B2     0.180191
       5B2     0.187481     4B1     0.192923    10A1     0.198245
       1A2     0.263664     6B2     0.264500    11A1     0.265858
      12A1     0.314413     5B1     0.327150    13A1     0.375946
       7B2     0.380414    14A1     0.449553     8B2     0.463973
       9B2     0.600091     6B1     0.644607    15A1     0.647983
       2A2     0.658267    16A1     0.667177    17A1     0.701397
       3A2     0.721942    10B2     0.725274     7B1     0.769620
      18A1     0.792594    19A1     0.821180     8B1     0.837599
      20A1     0.860027     9B1     0.901370    11B2     0.918397
       4A2     0.925062    12B2     0.946980    13B2     0.982315
      21A1     0.991997    10B1     1.017540    22A1     1.046726
      14B2     1.051330    11B1     1.124513     5A2     1.176664
      23A1     1.191948    15B2     1.202496    16B2     1.332631
      24A1     1.334934    25A1     1.457733     6A2     1.506733
      12B1     1.594708    26A1     1.670468    27A1     1.813320
      17B2     1.821830    18B2     1.974286    28A1     2.041228
      13B1     2.048783    19B2     2.054710     7A2     2.059193
      14B1     2.059456    29A1     2.078861    30A1     2.115231
       8A2     2.119922    20B2     2.139897    31A1     2.142033
      15B1     2.149831    32A1     2.254085    21B2     2.277042
      16B1     2.302238     9A2     2.311142    17B1     2.440881
      33A1     2.477295    22B2     2.482827    34A1     2.496815
      35A1     2.698990    18B1     2.717753    23B2     2.722561
      36A1     2.847804    24B2     2.859911    10A2     2.879127
      25B2     3.692239    37A1     3.750514    11A2     4.012237
      19B1     4.077827    20B1     4.100486    38A1     4.142684
      26B2     4.185397    27B2     4.281910    21B1     4.288165
      39A1     4.358584    12A2     4.381837    40A1     4.429674
      22B1     4.454395    28B2     4.514459    41A1     4.793694
      29B2     4.835876    30B2     5.139268    13A2     5.139784
      31B2     5.244494    42A1     5.334568    23B1     5.511624
      43A1     5.684547    44A1     6.198481    24B1     6.391656
      14A2     6.411624    45A1     6.412601    32B2     6.424783
      25B1     6.436493    33B2     6.494624    46A1     6.545365
      34B2     6.581367    26B1     6.720061    27B1     6.904931
      47A1     6.909139    15A2     6.925444    48A1     6.947319
      35B2     6.988061    49A1     7.046141    28B1     7.132820
      29B1     7.278535    16A2     7.302638    36B2     7.303408
      17A2     7.351656    50A1     7.437434    51A1     7.538964
      52A1     7.905959    37B2     7.911130    38B2     8.798624
      53A1     8.898821    54A1    15.729984

    Beta Occupied:

       1A1   -20.604877     2A1   -20.571072     3A1    -1.354024
       4A1    -1.050483     1B2    -0.717557     5A1    -0.588179
       1B1    -0.513318     2B2    -0.494966

    Beta Virtual:

       6A1     0.029375     3B2     0.047744     2B1     0.087023
       7A1     0.092154     8A1     0.141507     9A1     0.166939
       3B1     0.170882     4B2     0.180789     5B2     0.191125
      10A1     0.225693     4B1     0.253655     1A2     0.263666
       6B2     0.264932    11A1     0.288940    12A1     0.316816
       5B1     0.328416     7B2     0.380584    13A1     0.386655
      14A1     0.450637     8B2     0.464189     9B2     0.601759
      15A1     0.660228     6B1     0.668419     2A2     0.672587
      16A1     0.674223    17A1     0.718641     3A2     0.722461
      10B2     0.737415     7B1     0.781284    18A1     0.807431
       8B1     0.846896    19A1     0.851679     4A2     0.925491
      20A1     0.928292    11B2     0.936440    12B2     0.953533
      13B2     0.986256     9B1     0.988237    21A1     0.998985
      14B2     1.052483    22A1     1.053516    10B1     1.062101
      11B1     1.142032     5A2     1.176871    23A1     1.193391
      15B2     1.205199    16B2     1.335101    24A1     1.391522
      25A1     1.494882     6A2     1.507189    12B1     1.596718
      26A1     1.701865    27A1     1.818829    17B2     1.822159
      18B2     1.975784    28A1     2.070472    13B1     2.071389
      19B2     2.072103     7A2     2.083916    29A1     2.098741
      14B1     2.101948    30A1     2.155021    20B2     2.187734
       8A2     2.203015    31A1     2.210320    15B1     2.262012
       9A2     2.311273    32A1     2.313650    16B1     2.317037
      21B2     2.326776    17B1     2.449882    33A1     2.482852
      22B2     2.485669    34A1     2.531740    35A1     2.705553
      18B1     2.719597    23B2     2.723483    24B2     2.860031
      36A1     2.860836    10A2     2.879166    25B2     3.693205
      37A1     3.750650    11A2     4.012270    19B1     4.080056
      38A1     4.174044    26B2     4.220002    20B1     4.259429
      27B2     4.293692    21B1     4.294037    12A2     4.381955
      39A1     4.424410    22B1     4.459914    40A1     4.478772
      28B2     4.514558    41A1     4.805497    29B2     4.836051
      30B2     5.139467    13A2     5.139870    31B2     5.244999
      42A1     5.335218    23B1     5.511750    43A1     5.689672
      44A1     6.200019    24B1     6.486457    14A2     6.488448
      32B2     6.488484    45A1     6.495570    25B1     6.500698
      33B2     6.528605    34B2     6.611376    46A1     6.616787
      26B1     6.728332    47A1     6.966814    15A2     7.038989
      48A1     7.043112    27B1     7.087355    35B2     7.099884
      28B1     7.133335    49A1     7.173126    29B1     7.282700
      16A2     7.302928    36B2     7.303626    17A2     7.352131
      50A1     7.440316    51A1     7.540129    52A1     7.906617
      37B2     7.911522    38B2     8.799037    53A1     8.977810
      54A1    15.730345

    Final Occupation by Irrep:
             A1    A2    B1    B2
    DOCC [     5,    0,    1,    2 ]
    SOCC [     1,    0,    1,    0 ]

  @UHF Final Energy:  -150.87326633015817

   => Energetics <=

    Nuclear Repulsion Energy =             23.9918209447529769
    One-Electron Energy =                -256.0559640980274025
    Two-Electron Energy =                  81.1908768231162412
    Total Energy =                       -150.8732663301581738

  UHF NO Occupations:
  HONO-2 :    5 A1 1.9970475
  HONO-1 :    2 B1 1.0000000
  HONO-0 :    6 A1 1.0000000
  LUNO+0 :    7 A1 0.0029525
  LUNO+1 :    3 B2 0.0018009
  LUNO+2 :    8 A1 0.0000256
  LUNO+3 :    9 A1 0.0000024

Computation Completed

Properties will be evaluated at   0.000000,   0.000000,   0.000000 [a0]

Properties computed using the SCF density matrix

  Nuclear Dipole Moment: [e a0]
     X:     0.0000      Y:     0.0000      Z:     3.4551

  Electronic Dipole Moment: [e a0]
     X:     0.0000      Y:     0.0000      Z:    -2.6154

  Dipole Moment: [e a0]
     X:     0.0000      Y:     0.0000      Z:     0.8397     Total:     0.8397

  Dipole Moment: [D]
     X:     0.0000      Y:     0.0000      Z:     2.1343     Total:     2.1343

*** tstop() called on c2-24.compute.lan at Mon Mar  8 16:56:00 2021
Module time:
	user time   =      41.40 seconds =       0.69 minutes
	system time =       1.72 seconds =       0.03 minutes
	total time  =          5 seconds =       0.08 minutes
Total time:
	user time   =      41.40 seconds =       0.69 minutes
	system time =       1.72 seconds =       0.03 minutes
	total time  =          5 seconds =       0.08 minutes
 MINTS: Wrapper to libmints.
   by Justin Turney

   Calculation information:
      Number of threads:                12
      Number of atoms:                   4
      Number of AO shells:              46
      Number of SO shells:              37
      Number of primitives:             82
      Number of atomic orbitals:       160
      Number of basis functions:       138

      Number of irreps:                  4
      Integral cutoff                 0.00e+00
      Number of functions per irrep: [  54   17   29   38 ]

 OEINTS: Overlap, kinetic, potential, dipole, and quadrupole integrals
         stored in file 35.

      Computing two-electron integrals...done
      Computed 11333618 non-zero two-electron integrals.
        Stored in file 33.

*** tstart() called on c2-24.compute.lan
*** at Mon Mar  8 16:56:03 2021

	Wfn Parameters:
	--------------------
	Wavefunction         = CCSD_T
	Number of irreps     = 4
	Number of MOs        = 138
	Number of active MOs = 136
	AO-Basis             = NONE
	Semicanonical        = false
	Reference            = UHF
	Print Level          = 1

	IRREP	# MOs	# FZDC	# DOCC	# SOCC	# VIRT	# FZVR
	-----	-----	------	------	------	------	------
	 A1	   54	    2	    3	    1	    48	    0
	 A2	   17	    0	    0	    0	    17	    0
	 B1	   29	    0	    1	    1	    27	    0
	 B2	   38	    0	    2	    0	    36	    0
	Transforming integrals...
	IWL integrals will be deleted.
	(OO|OO)...
	Presorting SO-basis two-electron integrals.
	Sorting File: SO Ints (nn|nn) nbuckets = 1
	Transforming the one-electron integrals and constructing Fock matrices
	Starting AA/AB first half-transformation.
	Sorting AA/AB half-transformed integrals.
	Starting BB first half-transformation.
	Sorting BB half-transformed integrals.
	First half integral transformation complete.
	Starting AA second half-transformation.
	Starting AB second half-transformation.
	Starting BB second half-transformation.
	Two-electron integral transformation complete.
	(OO|OV)...
	Starting AA second half-transformation.
	Starting AB second half-transformation.
	Starting BB second half-transformation.
	Two-electron integral transformation complete.
	(OO|VV)...
	Starting AA second half-transformation.
	Starting AB second half-transformation.
	Starting BB second half-transformation.
	Two-electron integral transformation complete.
	(OV|OO)...
	Starting AA/AB first half-transformation.
	Sorting AA/AB half-transformed integrals.
	Starting BB first half-transformation.
	Sorting BB half-transformed integrals.
	First half integral transformation complete.
	Starting AA second half-transformation.
	Starting AB second half-transformation.
	Starting BB second half-transformation.
	Two-electron integral transformation complete.
	(OV|OV)...
	Starting AA second half-transformation.
	Starting AB second half-transformation.
	Starting BB second half-transformation.
	Two-electron integral transformation complete.
	(OV|VV)...
	Starting AA second half-transformation.
	Starting AB second half-transformation.
	Starting BB second half-transformation.
	Two-electron integral transformation complete.
	(VV|OO)...
	Starting AA/AB first half-transformation.
	Sorting AA/AB half-transformed integrals.
	Starting BB first half-transformation.
	Sorting BB half-transformed integrals.
	First half integral transformation complete.
	Starting AA second half-transformation.
	Starting AB second half-transformation.
	Starting BB second half-transformation.
	Two-electron integral transformation complete.
	(VV|OV)...
	Starting AA second half-transformation.
	Starting AB second half-transformation.
	Starting BB second half-transformation.
	Two-electron integral transformation complete.
	(VV|VV)...
	Starting AA second half-transformation.
	Starting AB second half-transformation.
	Starting BB second half-transformation.
	Two-electron integral transformation complete.
	Frozen core energy     =   -126.44153287074009

	Size of irrep 0 of <AB|CD> integrals:      5.040 (MW) /     40.320 (MB)
	Size of irrep 1 of <AB|CD> integrals:      3.197 (MW) /     25.576 (MB)
	Size of irrep 2 of <AB|CD> integrals:      3.640 (MW) /     29.124 (MB)
	Size of irrep 3 of <AB|CD> integrals:      4.783 (MW) /     38.264 (MB)
	Total:                                    16.660 (MW) /    133.283 (MB)

	Size of irrep 0 of <ab|cd> integrals:      5.382 (MW) /     43.059 (MB)
	Size of irrep 1 of <ab|cd> integrals:      3.389 (MW) /     27.114 (MB)
	Size of irrep 2 of <ab|cd> integrals:      3.936 (MW) /     31.490 (MB)
	Size of irrep 3 of <ab|cd> integrals:      5.018 (MW) /     40.141 (MB)
	Total:                                    17.726 (MW) /    141.804 (MB)

	Size of irrep 0 of <Ab|Cd> integrals:     22.024 (MW) /    176.194 (MB)
	Size of irrep 1 of <Ab|Cd> integrals:     13.170 (MW) /    105.357 (MB)
	Size of irrep 2 of <Ab|Cd> integrals:     15.140 (MW) /    121.119 (MB)
	Size of irrep 3 of <Ab|Cd> integrals:     19.598 (MW) /    156.787 (MB)
	Total:                                    69.932 (MW) /    559.457 (MB)

	Size of irrep 0 of <IA|BC> integrals:      1.469 (MW) /     11.748 (MB)
	Size of irrep 1 of <IA|BC> integrals:      0.694 (MW) /      5.550 (MB)
	Size of irrep 2 of <IA|BC> integrals:      0.908 (MW) /      7.266 (MB)
	Size of irrep 3 of <IA|BC> integrals:      1.198 (MW) /      9.588 (MB)
	Total:                                     4.269 (MW) /     34.152 (MB)

	Size of irrep 0 of <ia|bc> integrals:      1.178 (MW) /      9.426 (MB)
	Size of irrep 1 of <ia|bc> integrals:      0.527 (MW) /      4.212 (MB)
	Size of irrep 2 of <ia|bc> integrals:      0.663 (MW) /      5.301 (MB)
	Size of irrep 3 of <ia|bc> integrals:      0.999 (MW) /      7.992 (MB)
	Total:                                     3.366 (MW) /     26.931 (MB)

	Size of irrep 0 of <Ia|Bc> integrals:      1.521 (MW) /     12.164 (MB)
	Size of irrep 1 of <Ia|Bc> integrals:      0.711 (MW) /      5.690 (MB)
	Size of irrep 2 of <Ia|Bc> integrals:      0.949 (MW) /      7.595 (MB)
	Size of irrep 3 of <Ia|Bc> integrals:      1.222 (MW) /      9.775 (MB)
	Total:                                     4.403 (MW) /     35.225 (MB)

	Size of irrep 0 of <iA|bC> integrals:      1.140 (MW) /      9.123 (MB)
	Size of irrep 1 of <iA|bC> integrals:      0.512 (MW) /      4.094 (MB)
	Size of irrep 2 of <iA|bC> integrals:      0.634 (MW) /      5.074 (MB)
	Size of irrep 3 of <iA|bC> integrals:      0.978 (MW) /      7.827 (MB)
	Total:                                     3.265 (MW) /     26.118 (MB)

	Size of irrep 0 of tIjAb amplitudes:       0.084 (MW) /      0.676 (MB)
	Size of irrep 1 of tIjAb amplitudes:       0.022 (MW) /      0.174 (MB)
	Size of irrep 2 of tIjAb amplitudes:       0.039 (MW) /      0.311 (MB)
	Size of irrep 3 of tIjAb amplitudes:       0.062 (MW) /      0.496 (MB)
	Total:                                     0.207 (MW) /      1.657 (MB)

	Nuclear Rep. energy          =     23.99182094475298
	SCF energy                   =   -150.87326633015817
	One-electron energy          =    -85.60420626237749
	Two-electron (AA) energy     =     10.39911925183915
	Two-electron (BB) energy     =      5.48282750485077
	Two-electron (AB) energy     =     21.29870510151499
	Two-electron energy          =     37.18065185820492
	Reference energy             =   -150.87326633015968

*** tstop() called on c2-24.compute.lan at Mon Mar  8 16:56:35 2021
Module time:
	user time   =     240.61 seconds =       4.01 minutes
	system time =      13.85 seconds =       0.23 minutes
	total time  =         32 seconds =       0.53 minutes
Total time:
	user time   =     288.28 seconds =       4.80 minutes
	system time =      16.12 seconds =       0.27 minutes
	total time  =         40 seconds =       0.67 minutes
            **************************
            *                        *
            *        CCENERGY        *
            *                        *
            **************************

    Nuclear Rep. energy (wfn)     =   23.991820944752977
    SCF energy          (wfn)     = -150.873266330158174
    Reference energy    (file100) = -150.873266330159680

    Input parameters:
    -----------------
    Wave function   =     CCSD_T
    Reference wfn   =     UHF
    Brueckner       =     No
    Memory (Mbytes) =     4000.0
    Maxiter         =     50
    R_Convergence   =     1.0e-10
    E_Convergence   =     1.0e-10
    Restart         =     Yes
    DIIS            =     Yes
    AO Basis        =     NONE
    ABCD            =     NEW
    Cache Level     =     2
    Cache Type      =     LRU
    Print Level     =     1
    Num. of threads =     12
    # Amps to Print =     10
    Print MP2 Amps? =     No
    Analyze T2 Amps =     No
    Print Pair Ener =     No
    Local CC        =     No
    SCS-MP2         =     False
    SCSN-MP2        =     False
    SCS-CCSD        =     False

MP2 correlation energy -0.4165016666152527
                Solving CC Amplitude Equations
                ------------------------------
  Iter             Energy              RMS        T1Diag      D1Diag    New D1Diag    D2Diag
  ----     ---------------------    ---------   ----------  ----------  ----------   --------
     0        -0.416501666615253    0.000e+00    0.000000    0.000000    0.000000    0.000000
     1        -0.427237939852632    5.716e-02    0.010629    0.000000    0.000000    0.000000
     2        -0.435356250970597    1.709e-02    0.011126    0.000000    0.000000    0.000000
     3        -0.437519017633007    8.842e-03    0.013070    0.000000    0.000000    0.000000
     4        -0.437391920270259    2.708e-03    0.013490    0.000000    0.000000    0.000000
     5        -0.437382467034734    1.415e-03    0.013692    0.000000    0.000000    0.000000
     6        -0.437411892809367    5.338e-04    0.013721    0.000000    0.000000    0.000000
     7        -0.437414885544925    2.173e-04    0.013716    0.000000    0.000000    0.000000
     8        -0.437415808823134    6.704e-05    0.013711    0.000000    0.000000    0.000000
     9        -0.437416503266326    2.420e-05    0.013711    0.000000    0.000000    0.000000
    10        -0.437415589168263    9.271e-06    0.013710    0.000000    0.000000    0.000000
    11        -0.437415756212655    4.102e-06    0.013710    0.000000    0.000000    0.000000
    12        -0.437415716544788    1.508e-06    0.013710    0.000000    0.000000    0.000000
    13        -0.437415725368845    7.649e-07    0.013710    0.000000    0.000000    0.000000
    14        -0.437415749182701    3.235e-07    0.013710    0.000000    0.000000    0.000000
    15        -0.437415750659076    1.164e-07    0.013710    0.000000    0.000000    0.000000
    16        -0.437415751330209    5.404e-08    0.013710    0.000000    0.000000    0.000000
    17        -0.437415751867140    2.045e-08    0.013710    0.000000    0.000000    0.000000
    18        -0.437415751691113    1.119e-08    0.013710    0.000000    0.000000    0.000000

      * MP2 total energy                      = -151.289767996774941
      * CCSD total energy                     = -151.310682081558838
      * CCSD(T) total energy                     = -151.323006420731815
*** Psi4 exiting successfully. Buy a developer a beer!
