                               Psi4 1.3.2 release

  ==> Input File <==

--------------------------------------------------------------------------
memory 4 GB

molecule  {
0 3
O   -1.504736279283   -0.001190445094    0.000000000000
H   -0.553944836916    0.156631945424    0.000000000000
H   -1.894120969940    0.877191611432    0.000000000000
O    1.658986680699   -0.063949837570    0.000000000000
}
set {
basis aug-cc-pvtz
reference uhf
e_convergence 10
scf_type pk
freeze_core true
}

set ccenergy {
e_convergence 10
r_convergence 10
}

e = energy('ccsd(t)')

print_out('Stephenergy {}'.format(e))

--------------------------------------------------------------------------

    Molecular point group: cs

    Geometry (in Angstrom), charge = 0, multiplicity = 3:

       Center              X                  Y                   Z               Mass
    ------------   -----------------  -----------------  -----------------  -----------------
         O           -1.504736279283    -0.001190445094     0.000000000000    15.994914619570
         H           -0.553944836916     0.156631945424     0.000000000000     1.007825032230
         H           -1.894120969940     0.877191611432     0.000000000000     1.007825032230
         O            1.658986680699    -0.063949837570     0.000000000000    15.994914619570

  Charge       = 0
  Multiplicity = 3
  Basis Set: AUG-CC-PVTZ
    Blend: AUG-CC-PVTZ

    Orbital Energies [Eh]
    ---------------------

    Alpha Occupied:

       1Ap   -20.733075     2Ap   -20.558801     3Ap    -1.442404
       4Ap    -1.342848     5Ap    -0.733176     1App   -0.732799
       6Ap    -0.710076     7Ap    -0.634471     8Ap    -0.574963
       2App   -0.501889

    Alpha Virtual:

       9Ap     0.034212    10Ap     0.053479    11Ap     0.128180
       3App    0.132934    12Ap     0.148132    13Ap     0.160779
      14Ap     0.183949     4App    0.186818    15Ap     0.214116
      16Ap     0.241934    17Ap     0.264350     5App    0.286472
      18Ap     0.303892     6App    0.320584    19Ap     0.364201
      20Ap     0.406313    21Ap     0.460583    22Ap     0.568605
       7App    0.602619    23Ap     0.608683    24Ap     0.627046
      25Ap     0.681970     8App    0.709426    26Ap     0.714667
       9App    0.736668    10App    0.748825    27Ap     0.750749
      28Ap     0.811587    11App    0.826018    29Ap     0.837052
      12App    0.890866    30Ap     0.891967    31Ap     0.922756
      32Ap     0.945144    13App    0.947575    33Ap     0.951367
      14App    0.971836    34Ap     0.978571    35Ap     1.043474
      36Ap     1.135808    15App    1.153732    37Ap     1.169767
      38Ap     1.184960    39Ap     1.261176    16App    1.294797
      40Ap     1.316299    17App    1.527378    41Ap     1.586823
      18App    1.597766    42Ap     1.715875    43Ap     1.809583
      44Ap     1.842590    45Ap     1.977546    19App    1.977724
      46Ap     1.978732    20App    2.013211    47Ap     2.018010
      21App    2.048470    48Ap     2.061062    22App    2.122608
      49Ap     2.153000    50Ap     2.175836    23App    2.212527
      24App    2.302980    51Ap     2.310536    52Ap     2.338790
      53Ap     2.414789    25App    2.441299    54Ap     2.459645
      55Ap     2.490399    26App    2.526432    56Ap     2.628674
      57Ap     2.708742    27App    2.727425    58Ap     2.736140
      59Ap     2.860401    60Ap     2.932404    28App    2.943511
      61Ap     3.696532    62Ap     3.890606    29App    4.035993
      30App    4.062926    63Ap     4.074200    31App    4.177489
      64Ap     4.208263    65Ap     4.265001    32App    4.301788
      33App    4.391004    66Ap     4.407676    34App    4.429640
      67Ap     4.445447    68Ap     4.602295    69Ap     4.779371
      70Ap     4.958021    35App    5.154947    71Ap     5.171101
      72Ap     5.297959    73Ap     5.388986    36App    5.525002
      74Ap     5.690108    75Ap     6.188728    37App    6.312361
      76Ap     6.312392    38App    6.375488    77Ap     6.378168
      39App    6.518122    78Ap     6.519700    79Ap     6.559326
      80Ap     6.636981    40App    6.735722    81Ap     6.814463
      41App    6.820010    82Ap     6.921357    42App    6.936779
      83Ap     6.961480    84Ap     7.050928    43App    7.148014
      44App    7.272114    45App    7.325149    85Ap     7.325445
      86Ap     7.363384    46App    7.435054    87Ap     7.646214
      88Ap     7.944297    89Ap     7.960998    90Ap     8.809464
      91Ap     9.515043    92Ap    16.292716

    Beta Occupied:

       1Ap   -20.654289     2Ap   -20.558931     3Ap    -1.343421
       4Ap    -1.099936     5Ap    -0.709278     6Ap    -0.579968
       7Ap    -0.541206     1App   -0.501933

    Beta Virtual:

       8Ap     0.034368     2App    0.049359     9Ap     0.049608
      10Ap     0.055183    11Ap     0.143820    12Ap     0.152974
       3App    0.161245    13Ap     0.178100    14Ap     0.207806
      15Ap     0.225479     4App    0.227190    16Ap     0.250652
      17Ap     0.265602     5App    0.286680    18Ap     0.306026
       6App    0.324317    19Ap     0.368095    20Ap     0.417218
      21Ap     0.461838    22Ap     0.572180    23Ap     0.627800
       7App    0.635015    24Ap     0.640442    25Ap     0.686770
      26Ap     0.715329     8App    0.721497     9App    0.739806
      10App    0.750517    27Ap     0.767240    28Ap     0.817966
      29Ap     0.868045    11App    0.869084    30Ap     0.919920
      12App    0.941799    31Ap     0.941859    13App    0.949699
      32Ap     0.952725    33Ap     0.969972    34Ap     1.017581
      14App    1.020223    35Ap     1.045676    15App    1.156882
      36Ap     1.163588    37Ap     1.173037    38Ap     1.216171
      39Ap     1.264331    16App    1.305395    40Ap     1.325004
      17App    1.528103    41Ap     1.589056    18App    1.599192
      42Ap     1.742205    43Ap     1.815002    44Ap     1.853233
      45Ap     1.986676    46Ap     2.015686    19App    2.015698
      20App    2.053781    47Ap     2.065743    21App    2.170779
      48Ap     2.176197    22App    2.179618    49Ap     2.193927
      50Ap     2.244585    23App    2.249771    24App    2.306364
      51Ap     2.316024    52Ap     2.361445    53Ap     2.419242
      25App    2.444010    54Ap     2.460455    55Ap     2.496710
      26App    2.534896    56Ap     2.635873    57Ap     2.725737
      27App    2.728735    58Ap     2.739572    59Ap     2.862222
      60Ap     2.936830    28App    2.944141    61Ap     3.697221
      62Ap     3.892969    29App    4.038978    30App    4.146215
      63Ap     4.193353    64Ap     4.243345    31App    4.262517
      65Ap     4.276393    32App    4.301844    33App    4.391074
      66Ap     4.411268    34App    4.430305    67Ap     4.489873
      68Ap     4.604817    69Ap     4.781042    70Ap     4.960008
      35App    5.154934    71Ap     5.171398    72Ap     5.298201
      73Ap     5.390192    36App    5.525061    74Ap     5.690452
      75Ap     6.189983    76Ap     6.421212    37App    6.421217
      38App    6.450687    77Ap     6.453381    78Ap     6.534681
      39App    6.572001    79Ap     6.600233    80Ap     6.681919
      40App    6.741648    81Ap     6.923422    41App    7.005115
      82Ap     7.006738    42App    7.045927    83Ap     7.068253
      84Ap     7.130681    43App    7.150611    44App    7.272376
      85Ap     7.325771    45App    7.325841    86Ap     7.364147
      46App    7.435466    87Ap     7.647053    88Ap     7.945189
      89Ap     7.961468    90Ap     8.811017    91Ap     9.590053
      92Ap    16.292984

    Final Occupation by Irrep:
             Ap   App
    DOCC [     7,    1 ]
    SOCC [     1,    1 ]

  @UHF Final Energy:  -150.87444625319932

   => Energetics <=

    Nuclear Repulsion Energy =             22.9043887634096421
    One-Electron Energy =                -253.6042042163309134
    Two-Electron Energy =                  79.8253691997219335
    Total Energy =                       -150.8744462531993236

  UHF NO Occupations:
  HONO-2 :    7 Ap 1.9970281
  HONO-1 :    2App 1.0000000
  HONO-0 :    8 Ap 1.0000000
  LUNO+0 :    9 Ap 0.0029719
  LUNO+1 :   10 Ap 0.0017164
  LUNO+2 :   11 Ap 0.0000024
  LUNO+3 :   12 Ap 0.0000017

Computation Completed

Properties will be evaluated at   0.000000,   0.000000,   0.000000 [a0]

Properties computed using the SCF density matrix

  Nuclear Dipole Moment: [e a0]
     X:    -2.2942      Y:     0.9689      Z:     0.0000

  Electronic Dipole Moment: [e a0]
     X:     2.7578      Y:    -0.2939      Z:     0.0000

  Dipole Moment: [e a0]
     X:     0.4635      Y:     0.6750      Z:     0.0000     Total:     0.8188

  Dipole Moment: [D]
     X:     1.1782      Y:     1.7157      Z:     0.0000     Total:     2.0813

*** tstop() called on c1-11.compute.lan at Tue Mar  9 15:41:09 2021
Module time:
	user time   =      64.11 seconds =       1.07 minutes
	system time =       3.28 seconds =       0.05 minutes
	total time  =          7 seconds =       0.12 minutes
Total time:
	user time   =      64.11 seconds =       1.07 minutes
	system time =       3.28 seconds =       0.05 minutes
	total time  =          7 seconds =       0.12 minutes
 MINTS: Wrapper to libmints.
   by Justin Turney

   Calculation information:
      Number of threads:                12
      Number of atoms:                   4
      Number of AO shells:              46
      Number of SO shells:              46
      Number of primitives:             82
      Number of atomic orbitals:       160
      Number of basis functions:       138

      Number of irreps:                  2
      Integral cutoff                 0.00e+00
      Number of functions per irrep: [  92   46 ]

 OEINTS: Overlap, kinetic, potential, dipole, and quadrupole integrals
         stored in file 35.

      Computing two-electron integrals...done
      Computed 22935793 non-zero two-electron integrals.
        Stored in file 33.

*** tstart() called on c1-11.compute.lan
*** at Tue Mar  9 15:41:12 2021

	Wfn Parameters:
	--------------------
	Wavefunction         = CCSD_T
	Number of irreps     = 2
	Number of MOs        = 138
	Number of active MOs = 136
	AO-Basis             = NONE
	Semicanonical        = false
	Reference            = UHF
	Print Level          = 1

	IRREP	# MOs	# FZDC	# DOCC	# SOCC	# VIRT	# FZVR
	-----	-----	------	------	------	------	------
	 Ap	   92	    2	    5	    1	    84	    0
	 App	   46	    0	    1	    1	    44	    0
	Transforming integrals...
	IWL integrals will be deleted.
	(OO|OO)...
	Presorting SO-basis two-electron integrals.
	Sorting File: SO Ints (nn|nn) nbuckets = 1
	Transforming the one-electron integrals and constructing Fock matrices
	Starting AA/AB first half-transformation.
	Sorting AA/AB half-transformed integrals.
	Starting BB first half-transformation.
	Sorting BB half-transformed integrals.
	First half integral transformation complete.
	Starting AA second half-transformation.
	Starting AB second half-transformation.
	Starting BB second half-transformation.
	Two-electron integral transformation complete.
	(OO|OV)...
	Starting AA second half-transformation.
	Starting AB second half-transformation.
	Starting BB second half-transformation.
	Two-electron integral transformation complete.
	(OO|VV)...
	Starting AA second half-transformation.
	Starting AB second half-transformation.
	Starting BB second half-transformation.
	Two-electron integral transformation complete.
	(OV|OO)...
	Starting AA/AB first half-transformation.
	Sorting AA/AB half-transformed integrals.
	Starting BB first half-transformation.
	Sorting BB half-transformed integrals.
	First half integral transformation complete.
	Starting AA second half-transformation.
	Starting AB second half-transformation.
	Starting BB second half-transformation.
	Two-electron integral transformation complete.
	(OV|OV)...
	Starting AA second half-transformation.
	Starting AB second half-transformation.
	Starting BB second half-transformation.
	Two-electron integral transformation complete.
	(OV|VV)...
	Starting AA second half-transformation.
	Starting AB second half-transformation.
	Starting BB second half-transformation.
	Two-electron integral transformation complete.
	(VV|OO)...
	Starting AA/AB first half-transformation.
	Sorting AA/AB half-transformed integrals.
	Starting BB first half-transformation.
	Sorting BB half-transformed integrals.
	First half integral transformation complete.
	Starting AA second half-transformation.
	Starting AB second half-transformation.
	Starting BB second half-transformation.
	Two-electron integral transformation complete.
	(VV|OV)...
	Starting AA second half-transformation.
	Starting AB second half-transformation.
	Starting BB second half-transformation.
	Two-electron integral transformation complete.
	(VV|VV)...
	Starting AA second half-transformation.
	Starting AB second half-transformation.
	Starting BB second half-transformation.
	Two-electron integral transformation complete.
	Frozen core energy     =   -125.85688354375681

	Size of irrep 0 of <AB|CD> integrals:     19.643 (MW) /    157.141 (MB)
	Size of irrep 1 of <AB|CD> integrals:     13.660 (MW) /    109.283 (MB)
	Total:                                    33.303 (MW) /    266.424 (MB)

	Size of irrep 0 of <ab|cd> integrals:     20.794 (MW) /    166.349 (MB)
	Size of irrep 1 of <ab|cd> integrals:     14.631 (MW) /    117.045 (MB)
	Total:                                    35.424 (MW) /    283.394 (MB)

	Size of irrep 0 of <Ab|Cd> integrals:     83.174 (MW) /    665.395 (MB)
	Size of irrep 1 of <Ab|Cd> integrals:     56.550 (MW) /    452.403 (MB)
	Total:                                   139.725 (MW) /   1117.798 (MB)

	Size of irrep 0 of <IA|BC> integrals:      5.323 (MW) /     42.586 (MB)
	Size of irrep 1 of <IA|BC> integrals:      3.193 (MW) /     25.547 (MB)
	Total:                                     8.517 (MW) /     68.133 (MB)

	Size of irrep 0 of <ia|bc> integrals:      4.348 (MW) /     34.780 (MB)
	Size of irrep 1 of <ia|bc> integrals:      2.372 (MW) /     18.972 (MB)
	Total:                                     6.719 (MW) /     53.752 (MB)

	Size of irrep 0 of <Ia|Bc> integrals:      5.472 (MW) /     43.776 (MB)
	Size of irrep 1 of <Ia|Bc> integrals:      3.309 (MW) /     26.470 (MB)
	Total:                                     8.781 (MW) /     70.246 (MB)

	Size of irrep 0 of <iA|bC> integrals:      4.232 (MW) /     33.853 (MB)
	Size of irrep 1 of <iA|bC> integrals:      2.286 (MW) /     18.289 (MB)
	Total:                                     6.518 (MW) /     52.142 (MB)

	Size of irrep 0 of tIjAb amplitudes:       0.292 (MW) /      2.335 (MB)
	Size of irrep 1 of tIjAb amplitudes:       0.120 (MW) /      0.963 (MB)
	Total:                                     0.412 (MW) /      3.297 (MB)

	Nuclear Rep. energy          =     22.90438876340964
	SCF energy                   =   -150.87444625319932
	One-electron energy          =    -84.39553324450085
	Two-electron (AA) energy     =     10.13587120565932
	Two-electron (BB) energy     =      5.39180585961057
	Two-electron (AB) energy     =     20.94590470637768
	Two-electron energy          =     36.47358177164757
	Reference energy             =   -150.87444625320046

*** tstop() called on c1-11.compute.lan at Tue Mar  9 15:41:54 2021
Module time:
	user time   =     105.79 seconds =       1.76 minutes
	system time =      25.92 seconds =       0.43 minutes
	total time  =         42 seconds =       0.70 minutes
Total time:
	user time   =     176.06 seconds =       2.93 minutes
	system time =      30.00 seconds =       0.50 minutes
	total time  =         52 seconds =       0.87 minutes
            **************************
            *                        *
            *        CCENERGY        *
            *                        *
            **************************

    Nuclear Rep. energy (wfn)     =   22.904388763409642
    SCF energy          (wfn)     = -150.874446253199324
    Reference energy    (file100) = -150.874446253200460

    Input parameters:
    -----------------
    Wave function   =     CCSD_T
    Reference wfn   =     UHF
    Brueckner       =     No
    Memory (Mbytes) =     4000.0
    Maxiter         =     50
    R_Convergence   =     1.0e-10
    E_Convergence   =     1.0e-10
    Restart         =     Yes
    DIIS            =     Yes
    AO Basis        =     NONE
    ABCD            =     NEW
    Cache Level     =     2
    Cache Type      =     LRU
    Print Level     =     1
    Num. of threads =     12
    # Amps to Print =     10
    Print MP2 Amps? =     No
    Analyze T2 Amps =     No
    Print Pair Ener =     No
    Local CC        =     No
    SCS-MP2         =     False
    SCSN-MP2        =     False
    SCS-CCSD        =     False

MP2 correlation energy -0.4166393676904532
                Solving CC Amplitude Equations
                ------------------------------
  Iter             Energy              RMS        T1Diag      D1Diag    New D1Diag    D2Diag
  ----     ---------------------    ---------   ----------  ----------  ----------   --------
     0        -0.416639367690453    0.000e+00    0.000000    0.000000    0.000000    0.000000
     1        -0.427350170172601    5.691e-02    0.010557    0.000000    0.000000    0.000000
     2        -0.435441860350689    1.690e-02    0.011036    0.000000    0.000000    0.000000
     3        -0.437565049567194    8.579e-03    0.012908    0.000000    0.000000    0.000000
     4        -0.437439176702167    2.536e-03    0.013275    0.000000    0.000000    0.000000
     5        -0.437424715995520    1.321e-03    0.013431    0.000000    0.000000    0.000000
     6        -0.437451943392652    5.150e-04    0.013454    0.000000    0.000000    0.000000
     7        -0.437456575540470    2.648e-04    0.013448    0.000000    0.000000    0.000000
     8        -0.437457178268173    9.952e-05    0.013444    0.000000    0.000000    0.000000
     9        -0.437458551587811    7.421e-05    0.013445    0.000000    0.000000    0.000000
    10        -0.437456991934666    6.407e-05    0.013446    0.000000    0.000000    0.000000
    11        -0.437457138684088    6.122e-05    0.013447    0.000000    0.000000    0.000000
    12        -0.437456850587183    5.953e-05    0.013449    0.000000    0.000000    0.000000
    13        -0.437456843731541    5.839e-05    0.013453    0.000000    0.000000    0.000000
    14        -0.437458015632236    5.651e-05    0.013471    0.000000    0.000000    0.000000
    15        -0.437458392548154    5.002e-05    0.013543    0.000000    0.000000    0.000000
    16        -0.437458169086814    3.347e-05    0.013682    0.000000    0.000000    0.000000
    17        -0.437457823294382    1.617e-05    0.013751    0.000000    0.000000    0.000000
    18        -0.437457693274981    7.585e-06    0.013768    0.000000    0.000000    0.000000
    19        -0.437457952542605    3.353e-06    0.013773    0.000000    0.000000    0.000000
    20        -0.437458064228999    1.502e-06    0.013773    0.000000    0.000000    0.000000
    21        -0.437458072206430    5.916e-07    0.013773    0.000000    0.000000    0.000000
    22        -0.437458073505766    2.807e-07    0.013774    0.000000    0.000000    0.000000
    23        -0.437458072406679    1.458e-07    0.013774    0.000000    0.000000    0.000000
    24        -0.437458071733409    6.049e-08    0.013774    0.000000    0.000000    0.000000
    25        -0.437458072697052    3.304e-08    0.013774    0.000000    0.000000    0.000000
    26        -0.437458073156047    2.563e-08    0.013774    0.000000    0.000000    0.000000
    27        -0.437458073314318    2.400e-08    0.013774    0.000000    0.000000    0.000000
    28        -0.437458073262228    2.326e-08    0.013774    0.000000    0.000000    0.000000
    29        -0.437458073098364    2.258e-08    0.013774    0.000000    0.000000    0.000000
    30        -0.437458072831335    2.149e-08    0.013774    0.000000    0.000000    0.000000
    31        -0.437458073028493    1.819e-08    0.013774    0.000000    0.000000    0.000000
    32        -0.437458073373275    9.549e-09    0.013774    0.000000    0.000000    0.000000
    33        -0.437458073475530    4.179e-09    0.013774    0.000000    0.000000    0.000000
    34        -0.437458073527691    1.707e-09    0.013774    0.000000    0.000000    0.000000
    35        -0.437458073534472    6.715e-10    0.013774    0.000000    0.000000    0.000000
    36        -0.437458073534203    2.876e-10    0.013774    0.000000    0.000000    0.000000

      * MP2 total energy                      = -151.291085620890925
      * CCSD total energy                     = -151.311904326733952
      * CCSD(T) total energy                     = -151.324262818548704
*** Psi4 exiting successfully. Buy a developer a beer!
