                               Psi4 1.3.2 release

  ==> Input File <==

--------------------------------------------------------------------------
memory 4 GB

molecule  {
0 3
O    0.000000000000    0.000000000000    0.000000000000
H    0.950000000000    0.000000000000    0.000000000000
H   -0.250000000000    0.968000000000    0.000000000000
O    3.450000000000    0.000000000000    0.000000000000
}
set {
basis aug-cc-pvtz
reference uhf
e_convergence 10
scf_type pk
freeze_core true
}

set ccenergy {
e_convergence 10
r_convergence 10
}

e = energy('ccsd(t)')

print_out('Stephenergy {}'.format(e))

--------------------------------------------------------------------------

    Molecular point group: cs

    Geometry (in Angstrom), charge = 0, multiplicity = 3:

       Center              X                  Y                   Z               Mass
    ------------   -----------------  -----------------  -----------------  -----------------
         O           -1.643497874596    -0.028688748142     0.000000000000    15.994914619570
         H           -0.693497874596    -0.028688748142     0.000000000000     1.007825032230
         H           -1.893497874596     0.939311251858     0.000000000000     1.007825032230
         O            1.806502125404    -0.028688748142     0.000000000000    15.994914619570

  Charge       = 0
  Multiplicity = 3
  Basis Set: AUG-CC-PVTZ
    Blend: AUG-CC-PVTZ

    Orbital Energies [Eh]
    ---------------------

    Alpha Occupied:

       1Ap   -20.730000     2Ap   -20.563873     3Ap    -1.438797
       4Ap    -1.339440     5Ap    -0.729737     1App   -0.729658
       6Ap    -0.703788     7Ap    -0.631740     8Ap    -0.575315
       2App   -0.503322

    Alpha Virtual:

       9Ap     0.033717    10Ap     0.053436    11Ap     0.129033
       3App    0.132800    12Ap     0.147012    13Ap     0.159670
      14Ap     0.181711     4App    0.183210    15Ap     0.206842
      16Ap     0.235225    17Ap     0.266591     5App    0.279808
      18Ap     0.288653     6App    0.318892    19Ap     0.363844
      20Ap     0.385460    21Ap     0.447977    22Ap     0.554525
       7App    0.604062    23Ap     0.608463    24Ap     0.641913
      25Ap     0.665809     8App    0.685081    26Ap     0.711798
       9App    0.734099    10App    0.746545    27Ap     0.753717
      28Ap     0.788673    11App    0.825063    29Ap     0.834105
      30Ap     0.853739    12App    0.874264    31Ap     0.913898
      32Ap     0.921396    13App    0.939995    33Ap     0.947886
      14App    0.967342    34Ap     0.975925    35Ap     1.025869
      36Ap     1.082695    15App    1.157841    37Ap     1.167366
      16App    1.209467    38Ap     1.223236    39Ap     1.254724
      40Ap     1.283549    17App    1.512613    41Ap     1.531944
      18App    1.586358    42Ap     1.599109    43Ap     1.792923
      44Ap     1.815735    45Ap     1.969772    19App    1.979317
      46Ap     1.979383    20App    2.009480    47Ap     2.012426
      21App    2.033818    48Ap     2.035944    22App    2.086775
      49Ap     2.115940    50Ap     2.133503    23App    2.159944
      51Ap     2.227480    24App    2.278452    52Ap     2.331258
      53Ap     2.369600    25App    2.424025    54Ap     2.427085
      26App    2.456752    55Ap     2.482750    56Ap     2.548679
      57Ap     2.683123    27App    2.723645    58Ap     2.727383
      59Ap     2.844282    60Ap     2.916052    28App    2.919477
      61Ap     3.637104    62Ap     3.811726    29App    4.014299
      30App    4.051838    63Ap     4.066789    31App    4.132652
      64Ap     4.177046    65Ap     4.246741    32App    4.292555
      66Ap     4.360075    33App    4.381460    34App    4.417567
      67Ap     4.426220    68Ap     4.546720    69Ap     4.728012
      70Ap     4.890621    35App    5.107730    71Ap     5.122207
      72Ap     5.272355    73Ap     5.358039    36App    5.497672
      74Ap     5.672489    75Ap     6.172686    37App    6.314814
      76Ap     6.314837    38App    6.366612    77Ap     6.367835
      39App    6.462603    78Ap     6.475859    79Ap     6.540921
      80Ap     6.594118    40App    6.713348    81Ap     6.813693
      41App    6.818799    82Ap     6.887262    42App    6.924726
      83Ap     6.948949    84Ap     7.038802    43App    7.108711
      44App    7.241664    85Ap     7.290135    45App    7.324325
      86Ap     7.352399    46App    7.409413    87Ap     7.620598
      88Ap     7.886720    89Ap     7.947980    90Ap     8.731171
      91Ap     8.947810    92Ap    16.042510

    Beta Occupied:

       1Ap   -20.651266     2Ap   -20.563938     3Ap    -1.339706
       4Ap    -1.096256     5Ap    -0.703556     6Ap    -0.577691
       7Ap    -0.539830     1App   -0.503353

    Beta Virtual:

       8Ap     0.033662     9Ap     0.047789     2App    0.050605
      10Ap     0.058908    11Ap     0.142840    12Ap     0.151692
       3App    0.160319    13Ap     0.178282    14Ap     0.207052
      15Ap     0.217725     4App    0.226962    16Ap     0.243861
      17Ap     0.269427     5App    0.279974    18Ap     0.291415
       6App    0.320286    19Ap     0.367172    20Ap     0.392126
      21Ap     0.448469    22Ap     0.556589     7App    0.636990
      23Ap     0.638099    24Ap     0.645961    25Ap     0.669054
       8App    0.699110    26Ap     0.712443     9App    0.734893
      10App    0.747515    27Ap     0.767024    28Ap     0.800356
      29Ap     0.841159    11App    0.858237    30Ap     0.911616
      31Ap     0.923738    12App    0.925757    32Ap     0.944486
      13App    0.946515    33Ap     0.967777    34Ap     1.006206
      14App    1.021528    35Ap     1.029186    36Ap     1.090861
      15App    1.161817    37Ap     1.170444    16App    1.217384
      38Ap     1.256561    39Ap     1.271481    40Ap     1.288628
      17App    1.513124    41Ap     1.550042    18App    1.587547
      42Ap     1.622609    43Ap     1.795719    44Ap     1.817500
      45Ap     1.972832    19App    2.017486    46Ap     2.017532
      20App    2.037768    47Ap     2.041056    21App    2.120475
      48Ap     2.157980    49Ap     2.166204    22App    2.179439
      50Ap     2.180387    23App    2.212878    51Ap     2.270059
      24App    2.279806    52Ap     2.344905    53Ap     2.384401
      25App    2.427262    54Ap     2.428903    26App    2.464388
      55Ap     2.489701    56Ap     2.554085    57Ap     2.689659
      27App    2.724123    58Ap     2.727854    59Ap     2.848559
      60Ap     2.917895    28App    2.920069    61Ap     3.637269
      62Ap     3.812761    29App    4.014547    30App    4.116240
      63Ap     4.165615    31App    4.238469    64Ap     4.238827
      65Ap     4.256566    32App    4.292662    66Ap     4.380572
      33App    4.381660    34App    4.419269    67Ap     4.452867
      68Ap     4.547723    69Ap     4.728906    70Ap     4.891319
      35App    5.107733    71Ap     5.122461    72Ap     5.272541
      73Ap     5.359035    36App    5.497676    74Ap     5.672846
      75Ap     6.173491    37App    6.423766    76Ap     6.423784
      38App    6.442731    77Ap     6.444211    78Ap     6.518154
      39App    6.518515    79Ap     6.554652    80Ap     6.640875
      40App    6.715757    81Ap     6.885280    41App    7.006207
      82Ap     7.006686    42App    7.034431    83Ap     7.058540
      43App    7.110306    84Ap     7.122087    44App    7.241847
      85Ap     7.290401    45App    7.325008    86Ap     7.352612
      46App    7.409933    87Ap     7.623114    88Ap     7.886861
      89Ap     7.948670    90Ap     8.731696    91Ap     9.024881
      92Ap    16.042858

    Final Occupation by Irrep:
             Ap   App
    DOCC [     7,    1 ]
    SOCC [     1,    1 ]

  @UHF Final Energy:  -150.87217517834324

   => Energetics <=

    Nuclear Repulsion Energy =             21.6507839254500070
    One-Electron Energy =                -251.1246562942988021
    Two-Electron Energy =                  78.6016971905055470
    Total Energy =                       -150.8721751783432410

  UHF NO Occupations:
  HONO-2 :    7 Ap 1.9970427
  HONO-1 :    8 Ap 1.0000000
  HONO-0 :    2App 1.0000000
  LUNO+0 :    9 Ap 0.0029573
  LUNO+1 :   10 Ap 0.0017365
  LUNO+2 :   11 Ap 0.0000024
  LUNO+3 :   12 Ap 0.0000005

Computation Completed

Properties will be evaluated at   0.000000,   0.000000,   0.000000 [a0]

Properties computed using the SCF density matrix

  Nuclear Dipole Moment: [e a0]
     X:    -2.4244      Y:     0.8534      Z:     0.0000

  Electronic Dipole Moment: [e a0]
     X:     2.9571      Y:    -0.2289      Z:     0.0000

  Dipole Moment: [e a0]
     X:     0.5327      Y:     0.6245      Z:     0.0000     Total:     0.8208

  Dipole Moment: [D]
     X:     1.3539      Y:     1.5873      Z:     0.0000     Total:     2.0862

*** tstop() called on c1-9.compute.lan at Tue Mar  9 14:24:08 2021
Module time:
	user time   =      76.84 seconds =       1.28 minutes
	system time =       4.68 seconds =       0.08 minutes
	total time  =          9 seconds =       0.15 minutes
Total time:
	user time   =      76.84 seconds =       1.28 minutes
	system time =       4.68 seconds =       0.08 minutes
	total time  =          9 seconds =       0.15 minutes
 MINTS: Wrapper to libmints.
   by Justin Turney

   Calculation information:
      Number of threads:                12
      Number of atoms:                   4
      Number of AO shells:              46
      Number of SO shells:              46
      Number of primitives:             82
      Number of atomic orbitals:       160
      Number of basis functions:       138

      Number of irreps:                  2
      Integral cutoff                 0.00e+00
      Number of functions per irrep: [  92   46 ]

 OEINTS: Overlap, kinetic, potential, dipole, and quadrupole integrals
         stored in file 35.

      Computing two-electron integrals...done
      Computed 22128803 non-zero two-electron integrals.
        Stored in file 33.

*** tstart() called on c1-9.compute.lan
*** at Tue Mar  9 14:24:12 2021

	Wfn Parameters:
	--------------------
	Wavefunction         = CCSD_T
	Number of irreps     = 2
	Number of MOs        = 138
	Number of active MOs = 136
	AO-Basis             = NONE
	Semicanonical        = false
	Reference            = UHF
	Print Level          = 1

	IRREP	# MOs	# FZDC	# DOCC	# SOCC	# VIRT	# FZVR
	-----	-----	------	------	------	------	------
	 Ap	   92	    2	    5	    1	    84	    0
	 App	   46	    0	    1	    1	    44	    0
	Transforming integrals...
	IWL integrals will be deleted.
	(OO|OO)...
	Presorting SO-basis two-electron integrals.
	Sorting File: SO Ints (nn|nn) nbuckets = 1
	Transforming the one-electron integrals and constructing Fock matrices
	Starting AA/AB first half-transformation.
	Sorting AA/AB half-transformed integrals.
	Starting BB first half-transformation.
	Sorting BB half-transformed integrals.
	First half integral transformation complete.
	Starting AA second half-transformation.
	Starting AB second half-transformation.
	Starting BB second half-transformation.
	Two-electron integral transformation complete.
	(OO|OV)...
	Starting AA second half-transformation.
	Starting AB second half-transformation.
	Starting BB second half-transformation.
	Two-electron integral transformation complete.
	(OO|VV)...
	Starting AA second half-transformation.
	Starting AB second half-transformation.
	Starting BB second half-transformation.
	Two-electron integral transformation complete.
	(OV|OO)...
	Starting AA/AB first half-transformation.
	Sorting AA/AB half-transformed integrals.
	Starting BB first half-transformation.
	Sorting BB half-transformed integrals.
	First half integral transformation complete.
	Starting AA second half-transformation.
	Starting AB second half-transformation.
	Starting BB second half-transformation.
	Two-electron integral transformation complete.
	(OV|OV)...
	Starting AA second half-transformation.
	Starting AB second half-transformation.
	Starting BB second half-transformation.
	Two-electron integral transformation complete.
	(OV|VV)...
	Starting AA second half-transformation.
	Starting AB second half-transformation.
	Starting BB second half-transformation.
	Two-electron integral transformation complete.
	(VV|OO)...
	Starting AA/AB first half-transformation.
	Sorting AA/AB half-transformed integrals.
	Starting BB first half-transformation.
	Sorting BB half-transformed integrals.
	First half integral transformation complete.
	Starting AA second half-transformation.
	Starting AB second half-transformation.
	Starting BB second half-transformation.
	Two-electron integral transformation complete.
	(VV|OV)...
	Starting AA second half-transformation.
	Starting AB second half-transformation.
	Starting BB second half-transformation.
	Two-electron integral transformation complete.
	(VV|VV)...
	Starting AA second half-transformation.
	Starting AB second half-transformation.
	Starting BB second half-transformation.
	Two-electron integral transformation complete.
	Frozen core energy     =   -125.37849716062284

	Size of irrep 0 of <AB|CD> integrals:     19.643 (MW) /    157.141 (MB)
	Size of irrep 1 of <AB|CD> integrals:     13.660 (MW) /    109.283 (MB)
	Total:                                    33.303 (MW) /    266.424 (MB)

	Size of irrep 0 of <ab|cd> integrals:     20.794 (MW) /    166.349 (MB)
	Size of irrep 1 of <ab|cd> integrals:     14.631 (MW) /    117.045 (MB)
	Total:                                    35.424 (MW) /    283.394 (MB)

	Size of irrep 0 of <Ab|Cd> integrals:     83.174 (MW) /    665.395 (MB)
	Size of irrep 1 of <Ab|Cd> integrals:     56.550 (MW) /    452.403 (MB)
	Total:                                   139.725 (MW) /   1117.798 (MB)

	Size of irrep 0 of <IA|BC> integrals:      5.323 (MW) /     42.586 (MB)
	Size of irrep 1 of <IA|BC> integrals:      3.193 (MW) /     25.547 (MB)
	Total:                                     8.517 (MW) /     68.133 (MB)

	Size of irrep 0 of <ia|bc> integrals:      4.348 (MW) /     34.780 (MB)
	Size of irrep 1 of <ia|bc> integrals:      2.372 (MW) /     18.972 (MB)
	Total:                                     6.719 (MW) /     53.752 (MB)

	Size of irrep 0 of <Ia|Bc> integrals:      5.472 (MW) /     43.776 (MB)
	Size of irrep 1 of <Ia|Bc> integrals:      3.309 (MW) /     26.470 (MB)
	Total:                                     8.781 (MW) /     70.246 (MB)

	Size of irrep 0 of <iA|bC> integrals:      4.232 (MW) /     33.853 (MB)
	Size of irrep 1 of <iA|bC> integrals:      2.286 (MW) /     18.289 (MB)
	Total:                                     6.518 (MW) /     52.142 (MB)

	Size of irrep 0 of tIjAb amplitudes:       0.292 (MW) /      2.335 (MB)
	Size of irrep 1 of tIjAb amplitudes:       0.120 (MW) /      0.963 (MB)
	Total:                                     0.412 (MW) /      3.297 (MB)

	Nuclear Rep. energy          =     21.65078392545001
	SCF energy                   =   -150.87217517834324
	One-electron energy          =    -82.87674043215401
	Two-electron (AA) energy     =      9.90017747364805
	Two-electron (BB) energy     =      5.26403413852420
	Two-electron (AB) energy     =     20.56806687681003
	Two-electron energy          =     35.73227848898227
	Reference energy             =   -150.87217517834458

*** tstop() called on c1-9.compute.lan at Tue Mar  9 14:25:09 2021
Module time:
	user time   =     156.66 seconds =       2.61 minutes
	system time =      39.51 seconds =       0.66 minutes
	total time  =         57 seconds =       0.95 minutes
Total time:
	user time   =     239.83 seconds =       4.00 minutes
	system time =      45.07 seconds =       0.75 minutes
	total time  =         70 seconds =       1.17 minutes
            **************************
            *                        *
            *        CCENERGY        *
            *                        *
            **************************

    Nuclear Rep. energy (wfn)     =   21.650783925450007
    SCF energy          (wfn)     = -150.872175178343241
    Reference energy    (file100) = -150.872175178344577

    Input parameters:
    -----------------
    Wave function   =     CCSD_T
    Reference wfn   =     UHF
    Brueckner       =     No
    Memory (Mbytes) =     4000.0
    Maxiter         =     50
    R_Convergence   =     1.0e-10
    E_Convergence   =     1.0e-10
    Restart         =     Yes
    DIIS            =     Yes
    AO Basis        =     NONE
    ABCD            =     NEW
    Cache Level     =     2
    Cache Type      =     LRU
    Print Level     =     1
    Num. of threads =     12
    # Amps to Print =     10
    Print MP2 Amps? =     No
    Analyze T2 Amps =     No
    Print Pair Ener =     No
    Local CC        =     No
    SCS-MP2         =     False
    SCSN-MP2        =     False
    SCS-CCSD        =     False

MP2 correlation energy -0.4170168003992296
                Solving CC Amplitude Equations
                ------------------------------
  Iter             Energy              RMS        T1Diag      D1Diag    New D1Diag    D2Diag
  ----     ---------------------    ---------   ----------  ----------  ----------   --------
     0        -0.417016800399230    0.000e+00    0.000000    0.000000    0.000000    0.000000
     1        -0.427516961982385    5.746e-02    0.010605    0.000000    0.000000    0.000000
     2        -0.435733536949355    1.718e-02    0.011066    0.000000    0.000000    0.000000
     3        -0.437908991054868    8.640e-03    0.012940    0.000000    0.000000    0.000000
     4        -0.437783075357845    2.541e-03    0.013294    0.000000    0.000000    0.000000
     5        -0.437771248350038    1.280e-03    0.013441    0.000000    0.000000    0.000000
     6        -0.437797021419090    5.066e-04    0.013456    0.000000    0.000000    0.000000
     7        -0.437801014744717    2.273e-04    0.013445    0.000000    0.000000    0.000000
     8        -0.437801881018982    7.697e-05    0.013439    0.000000    0.000000    0.000000
     9        -0.437803121929087    4.532e-05    0.013439    0.000000    0.000000    0.000000
    10        -0.437801926979034    3.683e-05    0.013439    0.000000    0.000000    0.000000
    11        -0.437802036708689    3.541e-05    0.013439    0.000000    0.000000    0.000000
    12        -0.437801901170389    3.482e-05    0.013439    0.000000    0.000000    0.000000
    13        -0.437801812264951    3.439e-05    0.013440    0.000000    0.000000    0.000000
    14        -0.437802231889561    3.347e-05    0.013446    0.000000    0.000000    0.000000
    15        -0.437802251298773    3.106e-05    0.013460    0.000000    0.000000    0.000000
    16        -0.437802247741087    2.577e-05    0.013537    0.000000    0.000000    0.000000
    17        -0.437802255153148    1.508e-05    0.013590    0.000000    0.000000    0.000000
    18        -0.437802186342152    6.523e-06    0.013614    0.000000    0.000000    0.000000
    19        -0.437802331140353    2.933e-06    0.013620    0.000000    0.000000    0.000000
    20        -0.437802410697516    1.375e-06    0.013621    0.000000    0.000000    0.000000
    21        -0.437802416121908    5.821e-07    0.013621    0.000000    0.000000    0.000000
    22        -0.437802416659541    2.322e-07    0.013621    0.000000    0.000000    0.000000
    23        -0.437802417448971    9.959e-08    0.013621    0.000000    0.000000    0.000000
    24        -0.437802417400431    4.234e-08    0.013621    0.000000    0.000000    0.000000
    25        -0.437802418072161    2.245e-08    0.013621    0.000000    0.000000    0.000000
    26        -0.437802418481641    8.142e-09    0.013621    0.000000    0.000000    0.000000
    27        -0.437802418555826    3.387e-09    0.013621    0.000000    0.000000    0.000000
    28        -0.437802418580298    2.453e-09    0.013621    0.000000    0.000000    0.000000
    29        -0.437802418581962    2.215e-09    0.013621    0.000000    0.000000    0.000000
    30        -0.437802418568106    2.054e-09    0.013621    0.000000    0.000000    0.000000
    31        -0.437802418550166    1.903e-09    0.013621    0.000000    0.000000    0.000000
    32        -0.437802418539027    1.726e-09    0.013621    0.000000    0.000000    0.000000
    33        -0.437802418538458    1.394e-09    0.013621    0.000000    0.000000    0.000000
    34        -0.437802418542832    7.991e-10    0.013621    0.000000    0.000000    0.000000
    35        -0.437802418545959    3.571e-10    0.013621    0.000000    0.000000    0.000000
    36        -0.437802418546575    1.377e-10    0.013621    0.000000    0.000000    0.000000

      * MP2 total energy                      = -151.289191978743816
      * CCSD total energy                     = -151.309977596889865
      * CCSD(T) total energy                     = -151.322368450232858
*** Psi4 exiting successfully. Buy a developer a beer!
