                               Psi4 1.3.2 release

  ==> Input File <==

--------------------------------------------------------------------------
memory 4 GB

molecule  {
0 3
O    0.000000000000    0.000000000000   -1.646778481826
H    0.000000000000   -0.754305593000   -1.048672394108
H   -0.000000000000    0.754305593000   -1.048672394108
O    0.000000000000    0.000000000000    1.778930270633
}
set {
basis aug-cc-pvtz
reference uhf
e_convergence 10
scf_type pk
freeze_core true
}

set ccenergy {
e_convergence 10
r_convergence 10
}

e = energy('ccsd(t)')

print_out('Stephenergy {}'.format(e))

--------------------------------------------------------------------------

    Molecular point group: c2v

    Geometry (in Angstrom), charge = 0, multiplicity = 3:

       Center              X                  Y                   Z               Mass
    ------------   -----------------  -----------------  -----------------  -----------------
         O            0.000000000000     0.000000000000    -1.646778481826    15.994914619570
         H            0.000000000000    -0.754305593000    -1.048672394108     1.007825032230
         H           -0.000000000000     0.754305593000    -1.048672394108     1.007825032230
         O            0.000000000000     0.000000000000     1.778930270633    15.994914619570

  Charge       = 0
  Multiplicity = 3
  Basis Set: AUG-CC-PVTZ
    Blend: AUG-CC-PVTZ

    Orbital Energies [Eh]
    ---------------------

    Alpha Occupied:

       1A1   -20.729011     2A1   -20.563261     3A1    -1.437994
       4A1    -1.346563     1B2    -0.729396     1B1    -0.729018
       2B2    -0.707212     5A1    -0.632339     6A1    -0.580281
       2B1    -0.505307

    Alpha Virtual:

       7A1     0.035479     3B2     0.048552     3B1     0.132094
       8A1     0.134713     9A1     0.148001     4B2     0.157998
       4B1     0.181195     5B2     0.185001    10A1     0.189285
      11A1     0.250273     6B2     0.257415     1A2     0.266128
      12A1     0.273507     5B1     0.319584    13A1     0.367521
       7B2     0.382360    14A1     0.454049     8B2     0.471703
       2A2     0.609071     9B2     0.615650    15A1     0.618422
      16A1     0.619627     6B1     0.640618    17A1     0.717587
       3A2     0.731227    10B2     0.736021     7B1     0.742024
      18A1     0.800397    19A1     0.838254     8B1     0.840755
      11B2     0.854057     9B1     0.915424    20A1     0.925420
       4A2     0.934056    12B2     0.941739    21A1     0.958191
      10B1     0.960784    13B2     0.962029    22A1     1.048674
      14B2     1.053787    11B1     1.122978     5A2     1.185714
      23A1     1.186591    15B2     1.255525    24A1     1.262266
      16B2     1.275556    25A1     1.346042     6A2     1.511109
      12B1     1.590689    26A1     1.631128    27A1     1.829483
      17B2     1.830238    18B2     1.971321    13B1     1.978548
      19B2     1.988989    28A1     2.005232     7A2     2.011088
      14B1     2.026087    29A1     2.036180     8A2     2.039847
      20B2     2.081162    30A1     2.086255    15B1     2.119815
      31A1     2.145349    21B2     2.260882    16B1     2.278773
       9A2     2.329057    32A1     2.337831    33A1     2.402323
      34A1     2.487773    22B2     2.492262    17B1     2.505809
      35A1     2.575555    23B2     2.689690    18B1     2.718932
      36A1     2.819768    10A2     2.888300    24B2     2.899931
      25B2     3.665915    37A1     3.750759    11A2     4.031204
      19B1     4.050667    26B2     4.084718    20B1     4.100227
      38A1     4.146542    27B2     4.277104    21B1     4.280521
      39A1     4.366026    12A2     4.382626    40A1     4.404917
      22B1     4.415751    28B2     4.530434    41A1     4.748691
      29B2     4.850476    13A2     5.146518    30B2     5.164832
      31B2     5.247684    42A1     5.364866    23B1     5.525517
      43A1     5.671092    44A1     6.199733    24B1     6.315104
      32B2     6.315947    14A2     6.370056    45A1     6.375264
      25B1     6.402034    33B2     6.450219    46A1     6.480246
      34B2     6.527172    26B1     6.737099    15A2     6.819112
      47A1     6.820543    27B1     6.927467    48A1     6.930347
      35B2     6.956846    49A1     7.033055    28B1     7.134508
      29B1     7.259842    16A2     7.316283    36B2     7.338271
      17A2     7.357470    50A1     7.359045    51A1     7.543710
      52A1     7.895618    37B2     7.935190    53A1     8.531005
      38B2     8.809000    54A1    15.696509

    Beta Occupied:

       1A1   -20.650445     2A1   -20.563300     3A1    -1.346738
       4A1    -1.095693     1B2    -0.707345     5A1    -0.584413
       6A1    -0.538584     1B1    -0.505298

    Beta Virtual:

       2B2     0.035363     7A1     0.036600     2B1     0.049850
       3B2     0.069573     8A1     0.140876     9A1     0.150577
       3B1     0.160485     4B2     0.180907    10A1     0.189601
       5B2     0.221839     4B1     0.225283    11A1     0.259287
       6B2     0.263015     1A2     0.266443    12A1     0.274935
       5B1     0.320229    13A1     0.370910     7B2     0.387428
      14A1     0.455186     8B2     0.472241     9B2     0.618092
      15A1     0.620872     2A2     0.641297    16A1     0.651351
       6B1     0.652728    17A1     0.718904     3A2     0.732652
       7B1     0.744003    10B2     0.747440    18A1     0.808989
      19A1     0.851240     8B1     0.912205     9B1     0.930552
      20A1     0.930739     4A2     0.935457    11B2     0.939903
      12B2     0.944606    21A1     0.959123    13B2     1.009441
      10B1     1.025014    22A1     1.049275    14B2     1.056659
      11B1     1.128063     5A2     1.186423    23A1     1.190646
      15B2     1.269084    16B2     1.278786    24A1     1.281191
      25A1     1.403362     6A2     1.511216    12B1     1.590792
      26A1     1.643839    27A1     1.830621    17B2     1.831486
      18B2     1.977865    13B1     2.016642    19B2     2.021329
      28A1     2.030376     7A2     2.041630    14B1     2.046337
      29A1     2.099842    20B2     2.125024    30A1     2.155056
       8A2     2.182374    15B1     2.189072    31A1     2.195286
      16B1     2.282987    21B2     2.306824     9A2     2.332003
      32A1     2.358889    33A1     2.412968    34A1     2.492004
      22B2     2.496889    17B1     2.510488    35A1     2.578533
      23B2     2.689850    18B1     2.719022    36A1     2.820081
      10A2     2.888323    24B2     2.901971    25B2     3.665955
      37A1     3.750907    11A2     4.031292    19B1     4.099559
      38A1     4.160959    20B1     4.223495    26B2     4.241030
      21B1     4.280541    27B2     4.290996    12A2     4.382673
      39A1     4.389287    40A1     4.414743    22B1     4.415936
      28B2     4.530632    41A1     4.748844    29B2     4.850570
      13A2     5.146535    30B2     5.164836    31B2     5.247708
      42A1     5.365316    23B1     5.525521    43A1     5.671429
      44A1     6.201427    24B1     6.423953    32B2     6.424648
      14A2     6.446716    45A1     6.450307    25B1     6.457313
      33B2     6.494534    46A1     6.529047    34B2     6.539482
      26B1     6.743519    47A1     6.930381    15A2     7.008135
      48A1     7.009931    27B1     7.034895    35B2     7.065850
      49A1     7.114028    28B1     7.134773    29B1     7.259797
      16A2     7.316318    36B2     7.340397    17A2     7.357535
      50A1     7.359720    51A1     7.544422    52A1     7.895849
      37B2     7.935174    53A1     8.616107    38B2     8.808939
      54A1    15.696503

    Final Occupation by Irrep:
             A1    A2    B1    B2
    DOCC [     6,    0,    1,    1 ]
    SOCC [     0,    0,    1,    1 ]

  @UHF Final Energy:  -150.87348586254376

   => Energetics <=

    Nuclear Repulsion Energy =             21.9254566695421786
    One-Electron Energy =                -251.6456883913117508
    Two-Electron Energy =                  78.8467458592258055
    Total Energy =                       -150.8734858625437596

  UHF NO Occupations:
  HONO-2 :    6 A1 1.9970742
  HONO-1 :    2 B2 1.0000000
  HONO-0 :    2 B1 1.0000000
  LUNO+0 :    7 A1 0.0029258
  LUNO+1 :    8 A1 0.0016872
  LUNO+2 :    9 A1 0.0000024
  LUNO+3 :   10 A1 0.0000004

Computation Completed

Properties will be evaluated at   0.000000,   0.000000,   0.000000 [a0]

Properties computed using the SCF density matrix

  Nuclear Dipole Moment: [e a0]
     X:     0.0000      Y:     0.0000      Z:    -1.9656

  Electronic Dipole Moment: [e a0]
     X:     0.0000      Y:     0.0000      Z:     2.8003

  Dipole Moment: [e a0]
     X:     0.0000      Y:     0.0000      Z:     0.8348     Total:     0.8348

  Dipole Moment: [D]
     X:     0.0000      Y:     0.0000      Z:     2.1218     Total:     2.1218

*** tstop() called on c5-3.compute.lan at Wed Mar 10 09:47:06 2021
Module time:
	user time   =      53.78 seconds =       0.90 minutes
	system time =       1.34 seconds =       0.02 minutes
	total time  =          6 seconds =       0.10 minutes
Total time:
	user time   =      53.78 seconds =       0.90 minutes
	system time =       1.34 seconds =       0.02 minutes
	total time  =          6 seconds =       0.10 minutes
 MINTS: Wrapper to libmints.
   by Justin Turney

   Calculation information:
      Number of threads:                12
      Number of atoms:                   4
      Number of AO shells:              46
      Number of SO shells:              37
      Number of primitives:             82
      Number of atomic orbitals:       160
      Number of basis functions:       138

      Number of irreps:                  4
      Integral cutoff                 0.00e+00
      Number of functions per irrep: [  54   17   29   38 ]

 OEINTS: Overlap, kinetic, potential, dipole, and quadrupole integrals
         stored in file 35.

      Computing two-electron integrals...done
      Computed 11530318 non-zero two-electron integrals.
        Stored in file 33.

*** tstart() called on c5-3.compute.lan
*** at Wed Mar 10 09:47:08 2021

	Wfn Parameters:
	--------------------
	Wavefunction         = CCSD_T
	Number of irreps     = 4
	Number of MOs        = 138
	Number of active MOs = 136
	AO-Basis             = NONE
	Semicanonical        = false
	Reference            = UHF
	Print Level          = 1

	IRREP	# MOs	# FZDC	# DOCC	# SOCC	# VIRT	# FZVR
	-----	-----	------	------	------	------	------
	 A1	   54	    2	    4	    0	    48	    0
	 A2	   17	    0	    0	    0	    17	    0
	 B1	   29	    0	    1	    1	    27	    0
	 B2	   38	    0	    1	    1	    36	    0
	Transforming integrals...
	IWL integrals will be deleted.
	(OO|OO)...
	Presorting SO-basis two-electron integrals.
	Sorting File: SO Ints (nn|nn) nbuckets = 1
	Transforming the one-electron integrals and constructing Fock matrices
	Starting AA/AB first half-transformation.
	Sorting AA/AB half-transformed integrals.
	Starting BB first half-transformation.
	Sorting BB half-transformed integrals.
	First half integral transformation complete.
	Starting AA second half-transformation.
	Starting AB second half-transformation.
	Starting BB second half-transformation.
	Two-electron integral transformation complete.
	(OO|OV)...
	Starting AA second half-transformation.
	Starting AB second half-transformation.
	Starting BB second half-transformation.
	Two-electron integral transformation complete.
	(OO|VV)...
	Starting AA second half-transformation.
	Starting AB second half-transformation.
	Starting BB second half-transformation.
	Two-electron integral transformation complete.
	(OV|OO)...
	Starting AA/AB first half-transformation.
	Sorting AA/AB half-transformed integrals.
	Starting BB first half-transformation.
	Sorting BB half-transformed integrals.
	First half integral transformation complete.
	Starting AA second half-transformation.
	Starting AB second half-transformation.
	Starting BB second half-transformation.
	Two-electron integral transformation complete.
	(OV|OV)...
	Starting AA second half-transformation.
	Starting AB second half-transformation.
	Starting BB second half-transformation.
	Two-electron integral transformation complete.
	(OV|VV)...
	Starting AA second half-transformation.
	Starting AB second half-transformation.
	Starting BB second half-transformation.
	Two-electron integral transformation complete.
	(VV|OO)...
	Starting AA/AB first half-transformation.
	Sorting AA/AB half-transformed integrals.
	Starting BB first half-transformation.
	Sorting BB half-transformed integrals.
	First half integral transformation complete.
	Starting AA second half-transformation.
	Starting AB second half-transformation.
	Starting BB second half-transformation.
	Two-electron integral transformation complete.
	(VV|OV)...
	Starting AA second half-transformation.
	Starting AB second half-transformation.
	Starting BB second half-transformation.
	Two-electron integral transformation complete.
	(VV|VV)...
	Starting AA second half-transformation.
	Starting AB second half-transformation.
	Starting BB second half-transformation.
	Two-electron integral transformation complete.
	Frozen core energy     =   -125.45835065284437

	Size of irrep 0 of <AB|CD> integrals:      5.040 (MW) /     40.320 (MB)
	Size of irrep 1 of <AB|CD> integrals:      3.197 (MW) /     25.576 (MB)
	Size of irrep 2 of <AB|CD> integrals:      3.640 (MW) /     29.124 (MB)
	Size of irrep 3 of <AB|CD> integrals:      4.783 (MW) /     38.264 (MB)
	Total:                                    16.660 (MW) /    133.283 (MB)

	Size of irrep 0 of <ab|cd> integrals:      5.327 (MW) /     42.615 (MB)
	Size of irrep 1 of <ab|cd> integrals:      3.430 (MW) /     27.439 (MB)
	Size of irrep 2 of <ab|cd> integrals:      3.893 (MW) /     31.142 (MB)
	Size of irrep 3 of <ab|cd> integrals:      5.072 (MW) /     40.572 (MB)
	Total:                                    17.721 (MW) /    141.768 (MB)

	Size of irrep 0 of <Ab|Cd> integrals:     21.912 (MW) /    175.294 (MB)
	Size of irrep 1 of <Ab|Cd> integrals:     13.242 (MW) /    105.939 (MB)
	Size of irrep 2 of <Ab|Cd> integrals:     15.062 (MW) /    120.497 (MB)
	Size of irrep 3 of <Ab|Cd> integrals:     19.705 (MW) /    157.638 (MB)
	Total:                                    69.921 (MW) /    559.368 (MB)

	Size of irrep 0 of <IA|BC> integrals:      1.469 (MW) /     11.748 (MB)
	Size of irrep 1 of <IA|BC> integrals:      0.694 (MW) /      5.550 (MB)
	Size of irrep 2 of <IA|BC> integrals:      0.908 (MW) /      7.266 (MB)
	Size of irrep 3 of <IA|BC> integrals:      1.198 (MW) /      9.588 (MB)
	Total:                                     4.269 (MW) /     34.152 (MB)

	Size of irrep 0 of <ia|bc> integrals:      1.220 (MW) /      9.758 (MB)
	Size of irrep 1 of <ia|bc> integrals:      0.493 (MW) /      3.941 (MB)
	Size of irrep 2 of <ia|bc> integrals:      0.698 (MW) /      5.588 (MB)
	Size of irrep 3 of <ia|bc> integrals:      0.959 (MW) /      7.675 (MB)
	Total:                                     3.370 (MW) /     26.961 (MB)

	Size of irrep 0 of <Ia|Bc> integrals:      1.507 (MW) /     12.058 (MB)
	Size of irrep 1 of <Ia|Bc> integrals:      0.721 (MW) /      5.764 (MB)
	Size of irrep 2 of <Ia|Bc> integrals:      0.939 (MW) /      7.514 (MB)
	Size of irrep 3 of <Ia|Bc> integrals:      1.234 (MW) /      9.872 (MB)
	Total:                                     4.401 (MW) /     35.208 (MB)

	Size of irrep 0 of <iA|bC> integrals:      1.194 (MW) /      9.549 (MB)
	Size of irrep 1 of <iA|bC> integrals:      0.477 (MW) /      3.814 (MB)
	Size of irrep 2 of <iA|bC> integrals:      0.671 (MW) /      5.371 (MB)
	Size of irrep 3 of <iA|bC> integrals:      0.928 (MW) /      7.422 (MB)
	Total:                                     3.270 (MW) /     26.156 (MB)

	Size of irrep 0 of tIjAb amplitudes:       0.094 (MW) /      0.749 (MB)
	Size of irrep 1 of tIjAb amplitudes:       0.015 (MW) /      0.116 (MB)
	Size of irrep 2 of tIjAb amplitudes:       0.047 (MW) /      0.373 (MB)
	Size of irrep 3 of tIjAb amplitudes:       0.053 (MW) /      0.426 (MB)
	Total:                                     0.208 (MW) /      1.664 (MB)

	Nuclear Rep. energy          =     21.92545666954218
	SCF energy                   =   -150.87348586254376
	One-electron energy          =    -83.23500263742773
	Two-electron (AA) energy     =      9.94571820058736
	Two-electron (BB) energy     =      5.29226144259057
	Two-electron (AB) energy     =     20.65643111500729
	Two-electron energy          =     35.89441075818522
	Reference energy             =   -150.87348586254470

*** tstop() called on c5-3.compute.lan at Wed Mar 10 09:47:31 2021
Module time:
	user time   =      53.52 seconds =       0.89 minutes
	system time =      12.32 seconds =       0.21 minutes
	total time  =         23 seconds =       0.38 minutes
Total time:
	user time   =     112.88 seconds =       1.88 minutes
	system time =      14.02 seconds =       0.23 minutes
	total time  =         31 seconds =       0.52 minutes
            **************************
            *                        *
            *        CCENERGY        *
            *                        *
            **************************

    Nuclear Rep. energy (wfn)     =   21.925456669542179
    SCF energy          (wfn)     = -150.873485862543760
    Reference energy    (file100) = -150.873485862544698

    Input parameters:
    -----------------
    Wave function   =     CCSD_T
    Reference wfn   =     UHF
    Brueckner       =     No
    Memory (Mbytes) =     4000.0
    Maxiter         =     50
    R_Convergence   =     1.0e-10
    E_Convergence   =     1.0e-10
    Restart         =     Yes
    DIIS            =     Yes
    AO Basis        =     NONE
    ABCD            =     NEW
    Cache Level     =     2
    Cache Type      =     LRU
    Print Level     =     1
    Num. of threads =     12
    # Amps to Print =     10
    Print MP2 Amps? =     No
    Analyze T2 Amps =     No
    Print Pair Ener =     No
    Local CC        =     No
    SCS-MP2         =     False
    SCSN-MP2        =     False
    SCS-CCSD        =     False

MP2 correlation energy -0.4158283080803138
                Solving CC Amplitude Equations
                ------------------------------
  Iter             Energy              RMS        T1Diag      D1Diag    New D1Diag    D2Diag
  ----     ---------------------    ---------   ----------  ----------  ----------   --------
     0        -0.415828308080314    0.000e+00    0.000000    0.000000    0.000000    0.000000
     1        -0.426654631744581    5.647e-02    0.010377    0.000000    0.000000    0.000000
     2        -0.434756858005213    1.682e-02    0.010877    0.000000    0.000000    0.000000
     3        -0.436860690945670    8.424e-03    0.012697    0.000000    0.000000    0.000000
     4        -0.436736691154611    2.494e-03    0.013042    0.000000    0.000000    0.000000
     5        -0.436724597649398    1.260e-03    0.013184    0.000000    0.000000    0.000000
     6        -0.436750026831633    4.989e-04    0.013198    0.000000    0.000000    0.000000
     7        -0.436754166644177    2.252e-04    0.013188    0.000000    0.000000    0.000000
     8        -0.436754921038639    6.838e-05    0.013182    0.000000    0.000000    0.000000
     9        -0.436756141693269    2.799e-05    0.013182    0.000000    0.000000    0.000000
    10        -0.436754965246319    1.061e-05    0.013181    0.000000    0.000000    0.000000
    11        -0.436755076002453    5.252e-06    0.013181    0.000000    0.000000    0.000000
    12        -0.436755036340583    2.560e-06    0.013182    0.000000    0.000000    0.000000
    13        -0.436755030039751    1.373e-06    0.013182    0.000000    0.000000    0.000000
    14        -0.436755057170321    6.427e-07    0.013182    0.000000    0.000000    0.000000
    15        -0.436755055750457    1.730e-07    0.013182    0.000000    0.000000    0.000000
    16        -0.436755055621591    1.057e-07    0.013182    0.000000    0.000000    0.000000
    17        -0.436755056429231    2.992e-08    0.013182    0.000000    0.000000    0.000000
    18        -0.436755056010680    1.374e-08    0.013182    0.000000    0.000000    0.000000

      * MP2 total energy                      = -151.289314170625005
      * CCSD total energy                     = -151.310240918285302
      * CCSD(T) total energy                     = -151.322472206310323
*** Psi4 exiting successfully. Buy a developer a beer!
