                               Psi4 1.3.2 release

  ==> Input File <==

--------------------------------------------------------------------------
memory 4 GB

molecule  {
0 3
O   -1.504262781504   -0.001191536185   -0.000076021644
H   -0.554379148204    0.156621815115    0.002557668518
H   -1.894547597504    0.877195558615   -0.000518972818
O    1.658567429896   -0.063948356885   -0.000052434719
}
set {
basis aug-cc-pvtz
reference uhf
e_convergence 10
scf_type pk
freeze_core true
}

set ccenergy {
e_convergence 10
r_convergence 10
maxiter 100
}

e = energy('ccsd(t)')

print_out('Stephenergy {}'.format(e))

--------------------------------------------------------------------------

    Molecular point group: c1

    Geometry (in Angstrom), charge = 0, multiplicity = 3:

       Center              X                  Y                   Z               Mass
    ------------   -----------------  -----------------  -----------------  -----------------
         O           -1.504262781504    -0.001191536185    -0.000076021644    15.994914619570
         H           -0.554379148204     0.156621815115     0.002557668518     1.007825032230
         H           -1.894547597504     0.877195558615    -0.000518972818     1.007825032230
         O            1.658567429896    -0.063948356885    -0.000052434719    15.994914619570

  Charge       = 0
  Multiplicity = 3
  Basis Set: AUG-CC-PVTZ
    Blend: AUG-CC-PVTZ

    Orbital Energies [Eh]
    ---------------------

    Alpha Occupied:

       1A    -20.733042     2A    -20.558749     3A     -1.442373
       4A     -1.342958     5A     -0.733150     6A     -0.732769
       7A     -0.710290     8A     -0.634439     9A     -0.574952
      10A     -0.501908

    Alpha Virtual:

      11A      0.034209    12A      0.053479    13A      0.128185
      14A      0.132935    15A      0.148139    16A      0.160775
      17A      0.183935    18A      0.186814    19A      0.214125
      20A      0.241991    21A      0.264326    22A      0.286459
      23A      0.303941    24A      0.320641    25A      0.364351
      26A      0.406358    27A      0.460519    28A      0.568602
      29A      0.602642    30A      0.608710    31A      0.627089
      32A      0.681998    33A      0.709472    34A      0.714723
      35A      0.736676    36A      0.748713    37A      0.750738
      38A      0.811633    39A      0.826047    40A      0.837093
      41A      0.890878    42A      0.892056    43A      0.922818
      44A      0.945123    45A      0.947668    46A      0.951361
      47A      0.971737    48A      0.978771    49A      1.043348
      50A      1.135880    51A      1.153715    52A      1.169939
      53A      1.185138    54A      1.260939    55A      1.295058
      56A      1.316420    57A      1.527395    58A      1.587164
      59A      1.598070    60A      1.715859    61A      1.809610
      62A      1.842657    63A      1.977553    64A      1.977750
      65A      1.978635    66A      2.013238    67A      2.018039
      68A      2.048469    69A      2.061006    70A      2.122598
      71A      2.152873    72A      2.175909    73A      2.212633
      74A      2.302910    75A      2.310777    76A      2.338869
      77A      2.414840    78A      2.441373    79A      2.459015
      80A      2.490620    81A      2.526657    82A      2.629453
      83A      2.709602    84A      2.727447    85A      2.735864
      86A      2.860597    87A      2.932944    88A      2.943430
      89A      3.696244    90A      3.891422    91A      4.036021
      92A      4.062993    93A      4.074259    94A      4.177895
      95A      4.208978    96A      4.265106    97A      4.302392
      98A      4.391156    99A      4.407984   100A      4.429853
     101A      4.445535   102A      4.602386   103A      4.779146
     104A      4.958301   105A      5.155782   106A      5.171414
     107A      5.298554   108A      5.390277   109A      5.525643
     110A      5.691257   111A      6.188763   112A      6.312390
     113A      6.312421   114A      6.375517   115A      6.378215
     116A      6.518143   117A      6.519689   118A      6.559414
     119A      6.637110   120A      6.735842   121A      6.814486
     122A      6.820058   123A      6.921409   124A      6.936870
     125A      6.961468   126A      7.050954   127A      7.148440
     128A      7.272101   129A      7.325756   130A      7.326243
     131A      7.363785   132A      7.435119   133A      7.647282
     134A      7.945738   135A      7.961168   136A      8.810469
     137A      9.515965   138A     16.304428

    Beta Occupied:

       1A    -20.654258     2A    -20.558879     3A     -1.343531
       4A     -1.099907     5A     -0.709502     6A     -0.579927
       7A     -0.541198     8A     -0.501951

    Beta Virtual:

       9A      0.034366    10A      0.049382    11A      0.049631
      12A      0.055184    13A      0.143821    14A      0.152975
      15A      0.161226    16A      0.178073    17A      0.207812
      18A      0.225501    19A      0.227208    20A      0.250712
      21A      0.265576    22A      0.286667    23A      0.306077
      24A      0.324376    25A      0.368249    26A      0.417257
      27A      0.461788    28A      0.572177    29A      0.627842
      30A      0.635038    31A      0.640459    32A      0.686800
      33A      0.715378    34A      0.721547    35A      0.739830
      36A      0.750407    37A      0.767223    38A      0.818013
      39A      0.868083    40A      0.869094    41A      0.919997
      42A      0.941649    43A      0.942013    44A      0.949755
      45A      0.952732    46A      0.970098    47A      1.017668
      48A      1.020205    49A      1.045571    50A      1.156861
      51A      1.163753    52A      1.173202    53A      1.216261
      54A      1.264091    55A      1.305655    56A      1.325130
      57A      1.528111    58A      1.589398    59A      1.599506
      60A      1.742112    61A      1.815033    62A      1.853385
      63A      1.986499    64A      2.015712    65A      2.015724
      66A      2.053786    67A      2.065710    68A      2.170722
      69A      2.176161    70A      2.179631    71A      2.193910
      72A      2.244647    73A      2.249898    74A      2.306319
      75A      2.316264    76A      2.361556    77A      2.419295
      78A      2.444085    79A      2.459820    80A      2.496927
      81A      2.535107    82A      2.636624    83A      2.726572
      84A      2.728803    85A      2.739290    86A      2.862424
      87A      2.937372    88A      2.944063    89A      3.696929
      90A      3.893778    91A      4.039000    92A      4.146575
      93A      4.193853    94A      4.243759    95A      4.262634
      96A      4.276347    97A      4.302450    98A      4.391225
      99A      4.411575   100A      4.430520   101A      4.489974
     102A      4.604915   103A      4.780805   104A      4.960282
     105A      5.155769   106A      5.171708   107A      5.298794
     108A      5.391497   109A      5.525703   110A      5.691605
     111A      6.190016   112A      6.421241   113A      6.421245
     114A      6.450711   115A      6.453428   116A      6.534699
     117A      6.572030   118A      6.600281   119A      6.682050
     120A      6.741784   121A      6.923403   122A      7.005149
     123A      7.006787   124A      7.046078   125A      7.068280
     126A      7.130705   127A      7.150977   128A      7.272349
     129A      7.326461   130A      7.326558   131A      7.364565
     132A      7.435529   133A      7.648125   134A      7.946688
     135A      7.961583   136A      8.812014   137A      9.590973
     138A     16.304697

    Final Occupation by Irrep:
              A
    DOCC [     8 ]
    SOCC [     2 ]

  @UHF Final Energy:  -150.87447111521178

   => Energetics <=

    Nuclear Repulsion Energy =             22.9097725683636249
    One-Electron Energy =                -253.6147041177338792
    Two-Electron Energy =                  79.8304604341584820
    Total Energy =                       -150.8744711152117759

  UHF NO Occupations:
  HONO-2 :    8  A 1.9970282
  HONO-1 :    9  A 1.0000000
  HONO-0 :   10  A 1.0000000
  LUNO+0 :   11  A 0.0029718
  LUNO+1 :   12  A 0.0017159
  LUNO+2 :   13  A 0.0000024
  LUNO+3 :   14  A 0.0000017

Computation Completed

Properties will be evaluated at   0.000000,   0.000000,   0.000000 [a0]

Properties computed using the SCF density matrix

  Nuclear Dipole Moment: [e a0]
     X:    -2.2951      Y:     0.9689      Z:     0.0019

  Electronic Dipole Moment: [e a0]
     X:     2.7575      Y:    -0.2938      Z:    -0.0005

  Dipole Moment: [e a0]
     X:     0.4624      Y:     0.6751      Z:     0.0014     Total:     0.8183

  Dipole Moment: [D]
     X:     1.1754      Y:     1.7159      Z:     0.0036     Total:     2.0799

*** tstop() called on b1-1.compute.lan at Wed Mar 10 12:55:53 2021
Module time:
	user time   =      57.98 seconds =       0.97 minutes
	system time =       1.22 seconds =       0.02 minutes
	total time  =          6 seconds =       0.10 minutes
Total time:
	user time   =      57.98 seconds =       0.97 minutes
	system time =       1.22 seconds =       0.02 minutes
	total time  =          6 seconds =       0.10 minutes
 MINTS: Wrapper to libmints.
   by Justin Turney

   Calculation information:
      Number of threads:                12
      Number of atoms:                   4
      Number of AO shells:              46
      Number of SO shells:              46
      Number of primitives:             82
      Number of atomic orbitals:       160
      Number of basis functions:       138

      Number of irreps:                  1
      Integral cutoff                 0.00e+00
      Number of functions per irrep: [ 138 ]

 OEINTS: Overlap, kinetic, potential, dipole, and quadrupole integrals
         stored in file 35.

      Computing two-electron integrals...done
      Computed 45147984 non-zero two-electron integrals.
        Stored in file 33.

*** tstart() called on b1-1.compute.lan
*** at Wed Mar 10 12:56:00 2021

	Wfn Parameters:
	--------------------
	Wavefunction         = CCSD_T
	Number of irreps     = 1
	Number of MOs        = 138
	Number of active MOs = 136
	AO-Basis             = NONE
	Semicanonical        = false
	Reference            = UHF
	Print Level          = 1

	IRREP	# MOs	# FZDC	# DOCC	# SOCC	# VIRT	# FZVR
	-----	-----	------	------	------	------	------
	 A	   138	    2	    6	    2	    128	    0
	Transforming integrals...
	IWL integrals will be deleted.
	(OO|OO)...
	Presorting SO-basis two-electron integrals.
	Sorting File: SO Ints (nn|nn) nbuckets = 1
	Transforming the one-electron integrals and constructing Fock matrices
	Starting AA/AB first half-transformation.
	Sorting AA/AB half-transformed integrals.
	Starting BB first half-transformation.
	Sorting BB half-transformed integrals.
	First half integral transformation complete.
	Starting AA second half-transformation.
	Starting AB second half-transformation.
	Starting BB second half-transformation.
	Two-electron integral transformation complete.
	(OO|OV)...
	Starting AA second half-transformation.
	Starting AB second half-transformation.
	Starting BB second half-transformation.
	Two-electron integral transformation complete.
	(OO|VV)...
	Starting AA second half-transformation.
	Starting AB second half-transformation.
	Starting BB second half-transformation.
	Two-electron integral transformation complete.
	(OV|OO)...
	Starting AA/AB first half-transformation.
	Sorting AA/AB half-transformed integrals.
	Starting BB first half-transformation.
	Sorting BB half-transformed integrals.
	First half integral transformation complete.
	Starting AA second half-transformation.
	Starting AB second half-transformation.
	Starting BB second half-transformation.
	Two-electron integral transformation complete.
	(OV|OV)...
	Starting AA second half-transformation.
	Starting AB second half-transformation.
	Starting BB second half-transformation.
	Two-electron integral transformation complete.
	(OV|VV)...
	Starting AA second half-transformation.
	Starting AB second half-transformation.
	Starting BB second half-transformation.
	Two-electron integral transformation complete.
	(VV|OO)...
	Starting AA/AB first half-transformation.
	Sorting AA/AB half-transformed integrals.
	Starting BB first half-transformation.
	Sorting BB half-transformed integrals.
	First half integral transformation complete.
	Starting AA second half-transformation.
	Starting AB second half-transformation.
	Starting BB second half-transformation.
	Two-electron integral transformation complete.
	(VV|OV)...
	Starting AA second half-transformation.
	Starting AB second half-transformation.
	Starting BB second half-transformation.
	Two-electron integral transformation complete.
	(VV|VV)...
	Starting AA second half-transformation.
	Starting AB second half-transformation.
	Starting BB second half-transformation.
	Two-electron integral transformation complete.
	Frozen core energy     =   -125.85879514802778

	Size of irrep 0 of <AB|CD> integrals:     66.064 (MW) /    528.515 (MB)
	Total:                                    66.064 (MW) /    528.515 (MB)

	Size of irrep 0 of <ab|cd> integrals:     70.308 (MW) /    562.466 (MB)
	Total:                                    70.308 (MW) /    562.466 (MB)

	Size of irrep 0 of <Ab|Cd> integrals:    276.890 (MW) /   2215.117 (MB)
	Total:                                   276.890 (MW) /   2215.117 (MB)

	Size of irrep 0 of <IA|BC> integrals:     16.777 (MW) /    134.218 (MB)
	Total:                                    16.777 (MW) /    134.218 (MB)

	Size of irrep 0 of <ia|bc> integrals:     13.182 (MW) /    105.456 (MB)
	Total:                                    13.182 (MW) /    105.456 (MB)

	Size of irrep 0 of <Ia|Bc> integrals:     17.306 (MW) /    138.445 (MB)
	Total:                                    17.306 (MW) /    138.445 (MB)

	Size of irrep 0 of <iA|bC> integrals:     12.780 (MW) /    102.236 (MB)
	Total:                                    12.780 (MW) /    102.236 (MB)

	Size of irrep 0 of tIjAb amplitudes:       0.799 (MW) /      6.390 (MB)
	Total:                                     0.799 (MW) /      6.390 (MB)

	Nuclear Rep. energy          =     22.90977256836362
	SCF energy                   =   -150.87447111521178
	One-electron energy          =    -84.40204123668460
	Two-electron (AA) energy     =     10.13670480931977
	Two-electron (BB) energy     =      5.39233610136859
	Two-electron (AB) energy     =     20.94755179044662
	Two-electron energy          =     36.47659270113498
	Reference energy             =   -150.87447111521379

*** tstop() called on b1-1.compute.lan at Wed Mar 10 13:03:45 2021
Module time:
	user time   =     253.71 seconds =       4.23 minutes
	system time =      25.77 seconds =       0.43 minutes
	total time  =        465 seconds =       7.75 minutes
Total time:
	user time   =     318.63 seconds =       5.31 minutes
	system time =      27.92 seconds =       0.47 minutes
	total time  =        478 seconds =       7.97 minutes
            **************************
            *                        *
            *        CCENERGY        *
            *                        *
            **************************

    Nuclear Rep. energy (wfn)     =   22.909772568363625
    SCF energy          (wfn)     = -150.874471115211776
    Reference energy    (file100) = -150.874471115213794

    Input parameters:
    -----------------
    Wave function   =     CCSD_T
    Reference wfn   =     UHF
    Brueckner       =     No
    Memory (Mbytes) =     4000.0
    Maxiter         =    100
    R_Convergence   =     1.0e-10
    E_Convergence   =     1.0e-10
    Restart         =     Yes
    DIIS            =     Yes
    AO Basis        =     NONE
    ABCD            =     NEW
    Cache Level     =     2
    Cache Type      =     LRU
    Print Level     =     1
    Num. of threads =     12
    # Amps to Print =     10
    Print MP2 Amps? =     No
    Analyze T2 Amps =     No
    Print Pair Ener =     No
    Local CC        =     No
    SCS-MP2         =     False
    SCSN-MP2        =     False
    SCS-CCSD        =     False

MP2 correlation energy -0.4166150943125228
                Solving CC Amplitude Equations
                ------------------------------
  Iter             Energy              RMS        T1Diag      D1Diag    New D1Diag    D2Diag
  ----     ---------------------    ---------   ----------  ----------  ----------   --------
     0        -0.416615094312523    0.000e+00    0.000000    0.000000    0.000000    0.000000
     1        -0.427333150983921    5.689e-02    0.010554    0.000000    0.000000    0.000000
     2        -0.435422113314116    1.690e-02    0.011033    0.000000    0.000000    0.000000
     3        -0.437544152227788    8.575e-03    0.012904    0.000000    0.000000    0.000000
     4        -0.437418302676584    2.535e-03    0.013271    0.000000    0.000000    0.000000
     5        -0.437403847071599    1.320e-03    0.013427    0.000000    0.000000    0.000000
     6        -0.437431079415362    5.148e-04    0.013449    0.000000    0.000000    0.000000
     7        -0.437435708859538    2.646e-04    0.013444    0.000000    0.000000    0.000000
     8        -0.437436310166360    9.955e-05    0.013439    0.000000    0.000000    0.000000
     9        -0.437437681771363    7.427e-05    0.013440    0.000000    0.000000    0.000000
    10        -0.437436123407060    6.416e-05    0.013441    0.000000    0.000000    0.000000
    11        -0.437436269963757    6.131e-05    0.013443    0.000000    0.000000    0.000000
    12        -0.437435981243329    5.963e-05    0.013445    0.000000    0.000000    0.000000
    13        -0.437435973524627    5.849e-05    0.013448    0.000000    0.000000    0.000000
    14        -0.437437149018275    5.660e-05    0.013467    0.000000    0.000000    0.000000
    15        -0.437437527510733    5.007e-05    0.013539    0.000000    0.000000    0.000000
    16        -0.437437303749576    3.348e-05    0.013679    0.000000    0.000000    0.000000
    17        -0.437436957779138    1.616e-05    0.013748    0.000000    0.000000    0.000000
    18        -0.437436828026675    7.581e-06    0.013765    0.000000    0.000000    0.000000
    19        -0.437437087262126    3.351e-06    0.013770    0.000000    0.000000    0.000000
    20        -0.437437198908266    1.502e-06    0.013771    0.000000    0.000000    0.000000
    21        -0.437437206874827    5.916e-07    0.013771    0.000000    0.000000    0.000000
    22        -0.437437208162308    2.811e-07    0.013771    0.000000    0.000000    0.000000
    23        -0.437437207057214    1.465e-07    0.013771    0.000000    0.000000    0.000000
    24        -0.437437206381596    6.211e-08    0.013771    0.000000    0.000000    0.000000
    25        -0.437437207346525    3.586e-08    0.013771    0.000000    0.000000    0.000000
    26        -0.437437207808903    2.913e-08    0.013771    0.000000    0.000000    0.000000
    27        -0.437437207970679    2.766e-08    0.013771    0.000000    0.000000    0.000000
    28        -0.437437207911010    2.693e-08    0.013771    0.000000    0.000000    0.000000
    29        -0.437437207714576    2.620e-08    0.013771    0.000000    0.000000    0.000000
    30        -0.437437207407579    2.491e-08    0.013771    0.000000    0.000000    0.000000
    31        -0.437437207651317    2.106e-08    0.013771    0.000000    0.000000    0.000000
    32        -0.437437208033741    1.163e-08    0.013771    0.000000    0.000000    0.000000
    33        -0.437437208144482    6.734e-09    0.013771    0.000000    0.000000    0.000000
    34        -0.437437208202968    5.222e-09    0.013771    0.000000    0.000000    0.000000
    35        -0.437437208210128    4.885e-09    0.013771    0.000000    0.000000    0.000000
    36        -0.437437208209363    4.801e-09    0.013771    0.000000    0.000000    0.000000
    37        -0.437437208200419    4.730e-09    0.013771    0.000000    0.000000    0.000000
    38        -0.437437208225002    4.602e-09    0.013771    0.000000    0.000000    0.000000
    39        -0.437437208208287    4.145e-09    0.013771    0.000000    0.000000    0.000000
    40        -0.437437208212189    2.697e-09    0.013771    0.000000    0.000000    0.000000
    41        -0.437437208212723    1.336e-09    0.013771    0.000000    0.000000    0.000000
    42        -0.437437208200032    7.793e-10    0.013771    0.000000    0.000000    0.000000
    43        -0.437437208193092    5.192e-10    0.013771    0.000000    0.000000    0.000000
    44        -0.437437208191310    4.321e-10    0.013771    0.000000    0.000000    0.000000
    45        -0.437437208189655    4.030e-10    0.013771    0.000000    0.000000    0.000000

      * MP2 total energy                      = -151.291086209526327
      * CCSD total energy                     = -151.311908323398683
      * CCSD(T) total energy                     = -151.324263713956896
*** Psi4 exiting successfully. Buy a developer a beer!
