                               Psi4 1.3.2 release

  ==> Input File <==

--------------------------------------------------------------------------
memory 4 GB

molecule  {
0 3
O   -1.520512699176   -0.026661071393    0.000000000000
H   -0.557813911964   -0.015526082690    0.000000000000
H   -1.784862100491    0.894626734494    0.000000000000
O    1.668122585437   -0.028730261653    0.000000000000
}
set {
basis aug-cc-pvtz
reference uhf
e_convergence 10
scf_type pk
freeze_core true
}

set ccenergy {
e_convergence 10
r_convergence 10
}

e = energy('ccsd(t)')

print_out('Stephenergy {}'.format(e))

--------------------------------------------------------------------------

    Molecular point group: cs

    Geometry (in Angstrom), charge = 0, multiplicity = 3:

       Center              X                  Y                   Z               Mass
    ------------   -----------------  -----------------  -----------------  -----------------
         O           -1.520512699176    -0.026661071393     0.000000000000    15.994914619570
         H           -0.557813911964    -0.015526082690     0.000000000000     1.007825032230
         H           -1.784862100491     0.894626734494     0.000000000000     1.007825032230
         O            1.668122585437    -0.028730261653     0.000000000000    15.994914619570

  Charge       = 0
  Multiplicity = 3
  Basis Set: AUG-CC-PVTZ
    Blend: AUG-CC-PVTZ

    Orbital Energies [Eh]
    ---------------------

    Alpha Occupied:

       1Ap   -20.734930     2Ap   -20.557750     3Ap    -1.444250
       4Ap    -1.342773     5Ap    -0.734779     1App   -0.734637
       6Ap    -0.712296     7Ap    -0.636982     8Ap    -0.572950
       2App   -0.501425

    Alpha Virtual:

       9Ap     0.034654    10Ap     0.053209    11Ap     0.127551
       3App    0.131452    12Ap     0.148176    13Ap     0.161250
      14Ap     0.183325     4App    0.186152    15Ap     0.211355
      16Ap     0.241862    17Ap     0.271849     5App    0.282523
      18Ap     0.294020     6App    0.324030    19Ap     0.372394
      20Ap     0.392585    21Ap     0.460806    22Ap     0.559198
       7App    0.599955    23Ap     0.608349    24Ap     0.644305
      25Ap     0.667469     8App    0.712790    26Ap     0.713313
       9App    0.734675    10App    0.746314    27Ap     0.765514
      28Ap     0.796882    11App    0.824965    29Ap     0.851415
      30Ap     0.865304    12App    0.882471    31Ap     0.923171
      13App    0.943499    32Ap     0.944164    33Ap     0.956680
      14App    0.983675    34Ap     0.988769    35Ap     1.044927
      36Ap     1.127741    37Ap     1.169327    15App    1.177407
      38Ap     1.194899    16App    1.260892    39Ap     1.272127
      40Ap     1.322830    17App    1.529679    41Ap     1.561277
      18App    1.604358    42Ap     1.689714    43Ap     1.812862
      44Ap     1.825247    19App    1.975591    45Ap     1.975632
      46Ap     1.999278    20App    2.011095    47Ap     2.018680
      21App    2.048106    48Ap     2.062730    22App    2.122689
      49Ap     2.163000    50Ap     2.164923    23App    2.211546
      24App    2.294562    51Ap     2.301669    52Ap     2.325588
      53Ap     2.414277    25App    2.447156    54Ap     2.461058
      26App    2.524652    55Ap     2.535841    56Ap     2.632814
      57Ap     2.669768    27App    2.729960    58Ap     2.753337
      59Ap     2.869161    28App    2.946967    60Ap     2.949187
      61Ap     3.702136    62Ap     3.896236    29App    4.032414
      30App    4.058729    63Ap     4.077317    31App    4.174873
      64Ap     4.211368    65Ap     4.271034    32App    4.312148
      66Ap     4.381239    33App    4.394498    34App    4.440256
      67Ap     4.440937    68Ap     4.572168    69Ap     4.780853
      70Ap     4.960453    35App    5.162731    71Ap     5.173368
      72Ap     5.319728    73Ap     5.380039    36App    5.527331
      74Ap     5.706235    75Ap     6.190161    37App    6.310227
      76Ap     6.310268    38App    6.372734    77Ap     6.375708
      39App    6.520621    78Ap     6.530464    79Ap     6.557061
      80Ap     6.635117    40App    6.724764    81Ap     6.812113
      41App    6.818407    82Ap     6.905181    42App    6.933828
      83Ap     6.965162    84Ap     7.049639    43App    7.150751
      44App    7.276277    45App    7.327925    85Ap     7.334551
      86Ap     7.362156    46App    7.444026    87Ap     7.669705
      88Ap     7.950299    89Ap     7.974234    90Ap     8.810459
      91Ap     9.393770    92Ap    16.588568

    Beta Occupied:

       1Ap   -20.656150     2Ap   -20.557890     3Ap    -1.343375
       4Ap    -1.101800     5Ap    -0.711384     6Ap    -0.579650
       7Ap    -0.541961     1App   -0.501480

    Beta Virtual:

       8Ap     0.034281     9Ap     0.046045     2App    0.047671
      10Ap     0.057636    11Ap     0.144210    12Ap     0.151039
       3App    0.160206    13Ap     0.179743    14Ap     0.210213
      15Ap     0.217879     4App    0.225943    16Ap     0.251476
      17Ap     0.273775     5App    0.282875    18Ap     0.296294
       6App    0.327745    19Ap     0.376214    20Ap     0.403185
      21Ap     0.461538    22Ap     0.562067     7App    0.632243
      23Ap     0.638703    24Ap     0.647410    25Ap     0.670355
      26Ap     0.714056     8App    0.726554     9App    0.735922
      10App    0.747768    27Ap     0.784075    28Ap     0.809324
      29Ap     0.856981    11App    0.866932    30Ap     0.918398
      12App    0.936575    31Ap     0.943836    13App    0.950261
      32Ap     0.953374    33Ap     0.976567    34Ap     1.016731
      14App    1.024956    35Ap     1.048773    36Ap     1.154319
      37Ap     1.177356    15App    1.180622    38Ap     1.219501
      16App    1.272038    39Ap     1.274310    40Ap     1.333769
      17App    1.530547    41Ap     1.567312    18App    1.605954
      42Ap     1.716214    43Ap     1.817607    44Ap     1.833060
      45Ap     2.007813    19App    2.013706    46Ap     2.014000
      20App    2.052713    47Ap     2.067570    21App    2.170681
      22App    2.179477    48Ap     2.179828    49Ap     2.202580
      50Ap     2.226338    23App    2.248928    24App    2.296554
      51Ap     2.316590    52Ap     2.341293    53Ap     2.421801
      25App    2.449645    54Ap     2.461885    26App    2.533202
      55Ap     2.543122    56Ap     2.638914    57Ap     2.680672
      27App    2.731128    58Ap     2.760667    59Ap     2.873628
      28App    2.947652    60Ap     2.951870    61Ap     3.702638
      62Ap     3.898942    29App    4.032620    30App    4.148277
      63Ap     4.191181    64Ap     4.243197    31App    4.255369
      65Ap     4.294152    32App    4.312371    33App    4.394668
      66Ap     4.398859    34App    4.441808    67Ap     4.468973
      68Ap     4.573188    69Ap     4.782285    70Ap     4.962705
      35App    5.162718    71Ap     5.173946    72Ap     5.319927
      73Ap     5.381130    36App    5.527421    74Ap     5.706880
      75Ap     6.190585    37App    6.419194    76Ap     6.419221
      38App    6.448148    77Ap     6.451274    78Ap     6.537164
      39App    6.575558    79Ap     6.606332    80Ap     6.681247
      40App    6.729040    81Ap     6.906026    41App    7.004534
      82Ap     7.005322    42App    7.042187    83Ap     7.071034
      84Ap     7.129983    43App    7.152845    44App    7.276838
      45App    7.328724    85Ap     7.334565    86Ap     7.362708
      46App    7.444463    87Ap     7.671062    88Ap     7.950468
      89Ap     7.974527    90Ap     8.813021    91Ap     9.468232
      92Ap    16.589127

    Final Occupation by Irrep:
             Ap   App
    DOCC [     7,    1 ]
    SOCC [     1,    1 ]

  @UHF Final Energy:  -150.87456722404937

   => Energetics <=

    Nuclear Repulsion Energy =             22.8679008368410308
    One-Electron Energy =                -253.5184749492064498
    Two-Electron Energy =                  79.7760068883160471
    Total Energy =                       -150.8745672240493718

  UHF NO Occupations:
  HONO-2 :    7 Ap 1.9970293
  HONO-1 :    2App 1.0000000
  HONO-0 :    8 Ap 1.0000000
  LUNO+0 :    9 Ap 0.0029707
  LUNO+1 :   10 Ap 0.0017123
  LUNO+2 :   11 Ap 0.0000024
  LUNO+3 :   12 Ap 0.0000019

Computation Completed

Properties will be evaluated at   0.000000,   0.000000,   0.000000 [a0]

Properties computed using the SCF density matrix

  Nuclear Dipole Moment: [e a0]
     X:    -2.1955      Y:     0.8239      Z:     0.0000

  Electronic Dipole Moment: [e a0]
     X:     2.7557      Y:    -0.2117      Z:     0.0000

  Dipole Moment: [e a0]
     X:     0.5602      Y:     0.6122      Z:     0.0000     Total:     0.8298

  Dipole Moment: [D]
     X:     1.4239      Y:     1.5560      Z:     0.0000     Total:     2.1092

*** tstop() called on c4-12.compute.lan at Tue Mar  9 14:46:05 2021
Module time:
	user time   =      56.33 seconds =       0.94 minutes
	system time =       0.79 seconds =       0.01 minutes
	total time  =          6 seconds =       0.10 minutes
Total time:
	user time   =      56.33 seconds =       0.94 minutes
	system time =       0.79 seconds =       0.01 minutes
	total time  =          6 seconds =       0.10 minutes
 MINTS: Wrapper to libmints.
   by Justin Turney

   Calculation information:
      Number of threads:                12
      Number of atoms:                   4
      Number of AO shells:              46
      Number of SO shells:              46
      Number of primitives:             82
      Number of atomic orbitals:       160
      Number of basis functions:       138

      Number of irreps:                  2
      Integral cutoff                 0.00e+00
      Number of functions per irrep: [  92   46 ]

 OEINTS: Overlap, kinetic, potential, dipole, and quadrupole integrals
         stored in file 35.

      Computing two-electron integrals...done
      Computed 22952278 non-zero two-electron integrals.
        Stored in file 33.

*** tstart() called on c4-12.compute.lan
*** at Tue Mar  9 14:46:07 2021

	Wfn Parameters:
	--------------------
	Wavefunction         = CCSD_T
	Number of irreps     = 2
	Number of MOs        = 138
	Number of active MOs = 136
	AO-Basis             = NONE
	Semicanonical        = false
	Reference            = UHF
	Print Level          = 1

	IRREP	# MOs	# FZDC	# DOCC	# SOCC	# VIRT	# FZVR
	-----	-----	------	------	------	------	------
	 Ap	   92	    2	    5	    1	    84	    0
	 App	   46	    0	    1	    1	    44	    0
	Transforming integrals...
	IWL integrals will be deleted.
	(OO|OO)...
	Presorting SO-basis two-electron integrals.
	Sorting File: SO Ints (nn|nn) nbuckets = 1
	Transforming the one-electron integrals and constructing Fock matrices
	Starting AA/AB first half-transformation.
	Sorting AA/AB half-transformed integrals.
	Starting BB first half-transformation.
	Sorting BB half-transformed integrals.
	First half integral transformation complete.
	Starting AA second half-transformation.
	Starting AB second half-transformation.
	Starting BB second half-transformation.
	Two-electron integral transformation complete.
	(OO|OV)...
	Starting AA second half-transformation.
	Starting AB second half-transformation.
	Starting BB second half-transformation.
	Two-electron integral transformation complete.
	(OO|VV)...
	Starting AA second half-transformation.
	Starting AB second half-transformation.
	Starting BB second half-transformation.
	Two-electron integral transformation complete.
	(OV|OO)...
	Starting AA/AB first half-transformation.
	Sorting AA/AB half-transformed integrals.
	Starting BB first half-transformation.
	Sorting BB half-transformed integrals.
	First half integral transformation complete.
	Starting AA second half-transformation.
	Starting AB second half-transformation.
	Starting BB second half-transformation.
	Two-electron integral transformation complete.
	(OV|OV)...
	Starting AA second half-transformation.
	Starting AB second half-transformation.
	Starting BB second half-transformation.
	Two-electron integral transformation complete.
	(OV|VV)...
	Starting AA second half-transformation.
	Starting AB second half-transformation.
	Starting BB second half-transformation.
	Two-electron integral transformation complete.
	(VV|OO)...
	Starting AA/AB first half-transformation.
	Sorting AA/AB half-transformed integrals.
	Starting BB first half-transformation.
	Sorting BB half-transformed integrals.
	First half integral transformation complete.
	Starting AA second half-transformation.
	Starting AB second half-transformation.
	Starting BB second half-transformation.
	Two-electron integral transformation complete.
	(VV|OV)...
	Starting AA second half-transformation.
	Starting AB second half-transformation.
	Starting BB second half-transformation.
	Two-electron integral transformation complete.
	(VV|VV)...
	Starting AA second half-transformation.
	Starting AB second half-transformation.
	Starting BB second half-transformation.
	Two-electron integral transformation complete.
	Frozen core energy     =   -125.83282908608327

	Size of irrep 0 of <AB|CD> integrals:     19.643 (MW) /    157.141 (MB)
	Size of irrep 1 of <AB|CD> integrals:     13.660 (MW) /    109.283 (MB)
	Total:                                    33.303 (MW) /    266.424 (MB)

	Size of irrep 0 of <ab|cd> integrals:     20.794 (MW) /    166.349 (MB)
	Size of irrep 1 of <ab|cd> integrals:     14.631 (MW) /    117.045 (MB)
	Total:                                    35.424 (MW) /    283.394 (MB)

	Size of irrep 0 of <Ab|Cd> integrals:     83.174 (MW) /    665.395 (MB)
	Size of irrep 1 of <Ab|Cd> integrals:     56.550 (MW) /    452.403 (MB)
	Total:                                   139.725 (MW) /   1117.798 (MB)

	Size of irrep 0 of <IA|BC> integrals:      5.323 (MW) /     42.586 (MB)
	Size of irrep 1 of <IA|BC> integrals:      3.193 (MW) /     25.547 (MB)
	Total:                                     8.517 (MW) /     68.133 (MB)

	Size of irrep 0 of <ia|bc> integrals:      4.348 (MW) /     34.780 (MB)
	Size of irrep 1 of <ia|bc> integrals:      2.372 (MW) /     18.972 (MB)
	Total:                                     6.719 (MW) /     53.752 (MB)

	Size of irrep 0 of <Ia|Bc> integrals:      5.472 (MW) /     43.776 (MB)
	Size of irrep 1 of <Ia|Bc> integrals:      3.309 (MW) /     26.470 (MB)
	Total:                                     8.781 (MW) /     70.246 (MB)

	Size of irrep 0 of <iA|bC> integrals:      4.232 (MW) /     33.853 (MB)
	Size of irrep 1 of <iA|bC> integrals:      2.286 (MW) /     18.289 (MB)
	Total:                                     6.518 (MW) /     52.142 (MB)

	Size of irrep 0 of tIjAb amplitudes:       0.292 (MW) /      2.335 (MB)
	Size of irrep 1 of tIjAb amplitudes:       0.120 (MW) /      0.963 (MB)
	Total:                                     0.412 (MW) /      3.297 (MB)

	Nuclear Rep. energy          =     22.86790083684103
	SCF energy                   =   -150.87456722404937
	One-electron energy          =    -84.35953564120268
	Two-electron (AA) energy     =     10.12614227356500
	Two-electron (BB) energy     =      5.38871500078241
	Two-electron (AB) energy     =     20.93503939204650
	Two-electron energy          =     36.44989666639391
	Reference energy             =   -150.87456722405102

*** tstop() called on c4-12.compute.lan at Tue Mar  9 14:46:40 2021
Module time:
	user time   =     105.59 seconds =       1.76 minutes
	system time =      16.78 seconds =       0.28 minutes
	total time  =         33 seconds =       0.55 minutes
Total time:
	user time   =     168.22 seconds =       2.80 minutes
	system time =      18.13 seconds =       0.30 minutes
	total time  =         41 seconds =       0.68 minutes
            **************************
            *                        *
            *        CCENERGY        *
            *                        *
            **************************

    Nuclear Rep. energy (wfn)     =   22.867900836841031
    SCF energy          (wfn)     = -150.874567224049372
    Reference energy    (file100) = -150.874567224051020

    Input parameters:
    -----------------
    Wave function   =     CCSD_T
    Reference wfn   =     UHF
    Brueckner       =     No
    Memory (Mbytes) =     4000.0
    Maxiter         =     50
    R_Convergence   =     1.0e-10
    E_Convergence   =     1.0e-10
    Restart         =     Yes
    DIIS            =     Yes
    AO Basis        =     NONE
    ABCD            =     NEW
    Cache Level     =     2
    Cache Type      =     LRU
    Print Level     =     1
    Num. of threads =     12
    # Amps to Print =     10
    Print MP2 Amps? =     No
    Analyze T2 Amps =     No
    Print Pair Ener =     No
    Local CC        =     No
    SCS-MP2         =     False
    SCSN-MP2        =     False
    SCS-CCSD        =     False

MP2 correlation energy -0.4163961564527446
                Solving CC Amplitude Equations
                ------------------------------
  Iter             Energy              RMS        T1Diag      D1Diag    New D1Diag    D2Diag
  ----     ---------------------    ---------   ----------  ----------  ----------   --------
     0        -0.416396156452745    0.000e+00    0.000000    0.000000    0.000000    0.000000
     1        -0.427179035865638    5.672e-02    0.010516    0.000000    0.000000    0.000000
     2        -0.435249821522456    1.683e-02    0.011006    0.000000    0.000000    0.000000
     3        -0.437357938237045    8.548e-03    0.012870    0.000000    0.000000    0.000000
     4        -0.437233071080179    2.531e-03    0.013237    0.000000    0.000000    0.000000
     5        -0.437218007521737    1.326e-03    0.013394    0.000000    0.000000    0.000000
     6        -0.437245390869242    5.158e-04    0.013417    0.000000    0.000000    0.000000
     7        -0.437250215127336    2.673e-04    0.013412    0.000000    0.000000    0.000000
     8        -0.437250764999140    9.674e-05    0.013407    0.000000    0.000000    0.000000
     9        -0.437252170971705    6.959e-05    0.013408    0.000000    0.000000    0.000000
    10        -0.437250619268669    5.834e-05    0.013409    0.000000    0.000000    0.000000
    11        -0.437250742615257    5.511e-05    0.013410    0.000000    0.000000    0.000000
    12        -0.437250546979488    5.340e-05    0.013412    0.000000    0.000000    0.000000
    13        -0.437250524215699    5.244e-05    0.013414    0.000000    0.000000    0.000000
    14        -0.437251450017013    5.113e-05    0.013425    0.000000    0.000000    0.000000
    15        -0.437251793598985    4.664e-05    0.013471    0.000000    0.000000    0.000000
    16        -0.437251547219360    3.357e-05    0.013592    0.000000    0.000000    0.000000
    17        -0.437251260739787    1.702e-05    0.013665    0.000000    0.000000    0.000000
    18        -0.437251113921284    7.988e-06    0.013685    0.000000    0.000000    0.000000
    19        -0.437251356616073    3.515e-06    0.013691    0.000000    0.000000    0.000000
    20        -0.437251475321479    1.549e-06    0.013692    0.000000    0.000000    0.000000
    21        -0.437251481625170    6.186e-07    0.013692    0.000000    0.000000    0.000000
    22        -0.437251482479598    2.789e-07    0.013692    0.000000    0.000000    0.000000
    23        -0.437251481800636    1.394e-07    0.013692    0.000000    0.000000    0.000000
    24        -0.437251481006775    5.300e-08    0.013692    0.000000    0.000000    0.000000
    25        -0.437251481894129    2.627e-08    0.013692    0.000000    0.000000    0.000000
    26        -0.437251482321319    1.835e-08    0.013692    0.000000    0.000000    0.000000
    27        -0.437251482445796    1.668e-08    0.013692    0.000000    0.000000    0.000000
    28        -0.437251482424805    1.608e-08    0.013692    0.000000    0.000000    0.000000
    29        -0.437251482333287    1.567e-08    0.013692    0.000000    0.000000    0.000000
    30        -0.437251482152377    1.515e-08    0.013692    0.000000    0.000000    0.000000
    31        -0.437251482190629    1.361e-08    0.013692    0.000000    0.000000    0.000000
    32        -0.437251482429069    8.612e-09    0.013692    0.000000    0.000000    0.000000
    33        -0.437251482514356    3.987e-09    0.013692    0.000000    0.000000    0.000000
    34        -0.437251482567988    1.713e-09    0.013692    0.000000    0.000000    0.000000
    35        -0.437251482573928    6.677e-10    0.013692    0.000000    0.000000    0.000000
    36        -0.437251482572976    2.635e-10    0.013692    0.000000    0.000000    0.000000

      * MP2 total energy                      = -151.290963380503769
      * CCSD total energy                     = -151.311818706623399
      * CCSD(T) total energy                     = -151.324153110329632
*** Psi4 exiting successfully. Buy a developer a beer!
