                               Psi4 1.4a2.dev191

  ==> Input File <==

--------------------------------------------------------------------------
memory 10 GB

molecule {
0 2
O
H 1 R1
R1 = 0.96
}

set {
basis aug-cc-pvtz
e_convergence 10
reference uhf
scf_type pk
g_convergence gau_verytight
}

optimize("scf")

--------------------------------------------------------------------------

    Molecular point group: c2v
  Charge       = 0
  Multiplicity = 2
  Basis Set: AUG-CC-PVTZ
    Blend: AUG-CC-PVTZ
  @UHF Final Energy:   -75.42189686670415
    Total Energy =                        -75.4218968667041452
    Molecular point group: c2v
  Basis Set: AUG-CC-PVTZ
    Blend: AUG-CC-PVTZ
  Basis Set: AUG-CC-PVTZ
    Blend: AUG-CC-PVTZ
  @UHF Final Energy:   -75.42196684737881
    Total Energy =                        -75.4219668473788118
  Basis Set: AUG-CC-PVTZ
    Blend: AUG-CC-PVTZ
  Basis Set: AUG-CC-PVTZ
    Blend: AUG-CC-PVTZ
  @UHF Final Energy:   -75.42196688208742
    Total Energy =                        -75.4219668820874176
  Basis Set: AUG-CC-PVTZ
    Blend: AUG-CC-PVTZ
  Charge       = 0
  Multiplicity = 2
  Basis Set: AUG-CC-PVTZ
    Blend: AUG-CC-PVTZ

    Orbital Energies [Eh]
    ---------------------

    Alpha Occupied:

       1A1   -20.639589     2A1    -1.395519     3A1    -0.688164
       1B2    -0.659349     1B1    -0.562516

    Alpha Virtual:

       4A1     0.030055     5A1     0.136545     2B2     0.152360
       2B1     0.161616     6A1     0.184724     7A1     0.263375
       3B2     0.269289     3B1     0.275884     8A1     0.430024
       9A1     0.631055     1A2     0.638787    10A1     0.651565
       4B2     0.714055     4B1     0.728800     5B2     0.851505
       5B1     0.878950    11A1     0.878997    12A1     0.922125
       2A2     0.939478    13A1     0.940519     6B2     0.983793
      14A1     1.006565     6B1     1.010108     7B2     1.504920
       7B1     1.524739    15A1     1.689214     8B2     2.042504
       8B1     2.042524    16A1     2.050499     3A2     2.097381
      17A1     2.098114     9B2     2.256621     9B1     2.293235
      18A1     2.325220     4A2     2.326436    19A1     2.425435
      20A1     2.501328    10B2     2.727152    10B1     2.766503
      21A1     3.604680    11B2     4.033108     5A2     4.045385
      22A1     4.045650    11B1     4.089341    12B2     4.303040
      12B1     4.316887    23A1     4.659096    24A1     5.165111
      13B2     5.305652    13B1     5.344960    25A1     6.124962
      14B2     6.430874    14B1     6.430898     6A2     6.600325
      26A1     6.602012     7A2     6.965432    27A1     6.965514
      15B2     7.137020    15B1     7.194067    16B2     7.200611
      16B1     7.257354    28A1     7.419601    29A1     7.728724
      30A1    13.240128

    Beta Occupied:

       1A1   -20.600075     2A1    -1.238423     3A1    -0.643926
       1B1    -0.514633

    Beta Virtual:

       4A1     0.031159     1B2     0.062845     5A1     0.138913
       2B1     0.163783     6A1     0.188960     2B2     0.209111
       7A1     0.266531     3B1     0.275887     3B2     0.290591
       8A1     0.440077     9A1     0.648434     1A2     0.655538
      10A1     0.657156     4B1     0.727074     4B2     0.730802
      11A1     0.884002     5B1     0.885836     5B2     0.912251
      12A1     0.932676     2A2     0.941527    13A1     0.942105
       6B1     1.017719    14A1     1.017791     6B2     1.059508
       7B1     1.524730     7B2     1.531159    15A1     1.708110
       8B1     2.061600     8B2     2.061603    16A1     2.072169
       3A2     2.170799    17A1     2.172725     9B1     2.297285
       9B2     2.301320    18A1     2.342083     4A2     2.342653
      19A1     2.441336    20A1     2.515907    10B2     2.772227
      10B1     2.773463    21A1     3.610736     5A2     4.048477
      22A1     4.048509    11B1     4.106962    11B2     4.142640
      12B2     4.311450    12B1     4.314293    23A1     4.669045
      24A1     5.189556    13B2     5.347177    13B1     5.352360
      25A1     6.149191    14B1     6.485148    14B2     6.485148
       6A2     6.640933    26A1     6.641046     7A2     7.057373
      27A1     7.057595    15B2     7.194953    15B1     7.205868
      16B2     7.273208    16B1     7.273968    28A1     7.436598
      29A1     7.756892    30A1    13.272624

    Final Occupation by Irrep:
             A1    A2    B1    B2
    DOCC [     3,    0,    1,    0 ]
    SOCC [     0,    0,    0,    1 ]

  @UHF Final Energy:   -75.42196688211540

   => Energetics <=

    Nuclear Repulsion Energy =              4.4481601040468668
    One-Electron Energy =                -112.7980584073561090
    Two-Electron Energy =                  32.9279314211938399
    Total Energy =                        -75.4219668821154130

  UHF NO Occupations:
  HONO-2 :    2 A1 1.9992837
  HONO-1 :    3 A1 1.9978986
  HONO-0 :    1 B2 1.0000000
  LUNO+0 :    4 A1 0.0021014
  LUNO+1 :    5 A1 0.0007163
  LUNO+2 :    2 B1 0.0006111
  LUNO+3 :    6 A1 0.0000011

Computation Completed

Properties will be evaluated at   0.000000,   0.000000,   0.000000 [a0]

Properties computed using the SCF density matrix

  Nuclear Dipole Moment: [e a0]
     X:     0.0000      Y:     0.0000      Z:     0.8391

  Electronic Dipole Moment: [e a0]
     X:     0.0000      Y:     0.0000      Z:    -0.1519

  Dipole Moment: [e a0]
     X:     0.0000      Y:     0.0000      Z:     0.6872     Total:     0.6872

  Dipole Moment: [D]
     X:     0.0000      Y:     0.0000      Z:     1.7467     Total:     1.7467

*** tstop() called on c4-20.compute.lan at Tue Feb 23 13:21:11 2021
Module time:
	user time   =       0.55 seconds =       0.01 minutes
	system time =       0.05 seconds =       0.00 minutes
	total time  =          0 seconds =       0.00 minutes
Total time:
	user time   =       7.59 seconds =       0.13 minutes
	system time =       0.32 seconds =       0.01 minutes
	total time  =          8 seconds =       0.13 minutes

*** tstart() called on c4-20.compute.lan
*** at Tue Feb 23 13:21:11 2021

         ------------------------------------------------------------
                                   SCF GRAD
                          Rob Parrish, Justin Turney,
                       Andy Simmonett, and Alex Sokolov
         ------------------------------------------------------------

  ==> Geometry <==

    Molecular point group: c2v
    Full point group: C_inf_v

    Geometry (in Angstrom), charge = 0, multiplicity = 2:

       Center              X                  Y                   Z               Mass
    ------------   -----------------  -----------------  -----------------  -----------------
         O            0.000000000000     0.000000000000    -0.056412707687    15.994914619570
         H            0.000000000000     0.000000000000     0.895310608546     1.007825032230

  Nuclear repulsion =    4.448160104046867

  ==> Basis Set <==

  Basis Set: AUG-CC-PVTZ
    Blend: AUG-CC-PVTZ
    Number of shells: 23
    Number of basis function: 69
    Number of Cartesian functions: 80
    Spherical Harmonics?: true
    Max angular momentum: 3

  ==> DirectJKGrad: Integral-Direct SCF Gradients <==

    Gradient:                    1
    J tasked:                  Yes
    K tasked:                  Yes
    wK tasked:                  No
    Integrals threads:           1
    Schwarz Cutoff:          0E+00

  -Total Gradient:
     Atom            X                  Y                   Z
    ------   -----------------  -----------------  -----------------
       1        0.000000000000     0.000000000000     0.000000195741
       2        0.000000000000     0.000000000000    -0.000000195741

*** tstop() called on c4-20.compute.lan at Tue Feb 23 13:21:13 2021
Module time:
	user time   =       1.56 seconds =       0.03 minutes
	system time =       0.02 seconds =       0.00 minutes
	total time  =          2 seconds =       0.03 minutes
Total time:
	user time   =       9.15 seconds =       0.15 minutes
	system time =       0.34 seconds =       0.01 minutes
	total time  =         10 seconds =       0.17 minutes

			-----------------------------------------
			 OPTKING 2.0: for geometry optimizations
			  - R.A. King,  Bethel University
			-----------------------------------------

	Previous internal coordinate definitions found.
	---Fragment 1 Geometry and Gradient---
	 O           0.0000000000        0.0000000000       -0.1066045675
	 H           0.0000000000        0.0000000000        1.6918918474
	             0.0000000000        0.0000000000        0.0000001957
	             0.0000000000        0.0000000000       -0.0000001957

	---Fragment 1 Intrafragment Coordinates---
	 - Coordinate -           - BOHR/RAD -       - ANG/DEG -
	 R(1,2)           =         1.798496	       0.951723

	Current energy   :       -75.4219668821

	Energy change for the previous step:
		Projected    :        -0.0000000000
		Actual       :        -0.0000000000

	Performing BFGS update.
	Previous computed or guess Hessian on step 1.
	Denominators (dg)(dq) or (dq)(dq) are very small.
	 Skipping Hessian update for step 3.
	Denominators (dg)(dq) or (dq)(dq) are very small.
	 Skipping Hessian update for step 2.
	Steps to be used in Hessian update: 1
	Taking RFO optimization step.
	Going to follow RFO solution 1.
	Using RFO vector 1.
	Norm of target step-size    0.00000
	Projected energy change by RFO approximation:        -0.0000000000

	Back-transformation to cartesian coordinates...
	Successfully converged to displaced geometry.

	--- Internal Coordinate Step in ANG or DEG, aJ/ANG or AJ/DEG ---
	 ---------------------------------------------------------------------------
	   Coordinate                Previous        Force       Change         New
	   ----------                --------       ------       ------       ------
	    1 R(1,2)          =      0.951723     0.000002     0.000000     0.951723
	 ---------------------------------------------------------------------------
	Successfully symmetrized geometry.

  ==> Convergence Check <==

  Measures of convergence in internal coordinates in au.
  Criteria marked as inactive (o), active & met (*), and active & unmet ( ).
  ---------------------------------------------------------------------------------------------
   Step     Total Energy     Delta E     MAX Force     RMS Force      MAX Disp      RMS Disp
  ---------------------------------------------------------------------------------------------
    Convergence Criteria             o    2.00e-06 *    1.00e-06 *    6.00e-06 *    4.00e-06 *
  ---------------------------------------------------------------------------------------------
      4     -75.42196688   -2.80e-11 o    1.96e-07 *    1.96e-07 *    3.45e-07 *    3.45e-07 *  ~
  ---------------------------------------------------------------------------------------------

  **** Optimization is complete! (in 4 steps) ****

  ==> Optimization Summary <==

  Measures of convergence in internal coordinates in au.
  --------------------------------------------------------------------------------------------------------------- ~
   Step         Total Energy             Delta E       MAX Force       RMS Force        MAX Disp        RMS Disp  ~
  --------------------------------------------------------------------------------------------------------------- ~
      1     -75.421896866704    -75.421896866704      0.00886994      0.00886994      0.01598546      0.01598546  ~
      2     -75.421966847379     -0.000069980675      0.00020137      0.00020137      0.00035486      0.00035486  ~
      3     -75.421966882087     -0.000000034709      0.00000571      0.00000571      0.00001007      0.00001007  ~
      4     -75.421966882115     -0.000000000028      0.00000020      0.00000020      0.00000035      0.00000035  ~
  --------------------------------------------------------------------------------------------------------------- ~

	Writing optimization data to binary file.
	Final energy is    -75.4219668821154
	Final (previous) structure:
	Cartesian Geometry (in Angstrom)
	    O     0.0000000000   0.0000000000  -0.0564127075
	    H     0.0000000000   0.0000000000   0.8953106050
	Saving final (previous) structure.
			--------------------------
			 OPTKING Finished Execution
			--------------------------

    Final optimized geometry and variables:
    Molecular point group: c2v
    Full point group: C_inf_v

    Geometry (in Angstrom), charge = 0, multiplicity = 2:

    O
    H             1          R1

    R1        =    0.9517233162

	Removing binary optimization data file.
	Cleaning optimization helper files.

    Psi4 stopped on: Tuesday, 23 February 2021 01:21PM
    Psi4 wall time for execution: 0:00:09.70

*** Psi4 exiting successfully. Buy a developer a beer!
