                               Psi4 1.3.2 release

  ==> Input File <==

--------------------------------------------------------------------------
memory 4 GB

molecule  {
0 3
O    0.000000000000    0.000000000000   -1.503956028999
H    0.000000000000   -0.750470130632   -0.893322048099
H   -0.000000000000    0.750470130632   -0.893322048099
O    0.000000000000    0.000000000000    1.616530849601
}
set {
basis aug-cc-pvtz
reference uhf
e_convergence 10
scf_type pk
freeze_core true
}

set ccenergy {
e_convergence 10
r_convergence 10
}

e = energy('ccsd(t)')

print_out('Stephenergy {}'.format(e))

--------------------------------------------------------------------------

    Molecular point group: c2v

    Geometry (in Angstrom), charge = 0, multiplicity = 3:

       Center              X                  Y                   Z               Mass
    ------------   -----------------  -----------------  -----------------  -----------------
         O           -0.000000000000     0.000000000000    -1.503956028999    15.994914619570
         H            0.000000000000    -0.750470130632    -0.893322048099     1.007825032230
         H           -0.000000000000     0.750470130632    -0.893322048099     1.007825032230
         O           -0.000000000000     0.000000000000     1.616530849601    15.994914619570

  Charge       = 0
  Multiplicity = 3
  Basis Set: AUG-CC-PVTZ
    Blend: AUG-CC-PVTZ

    Orbital Energies [Eh]
    ---------------------

    Alpha Occupied:

       1A1   -20.732258     2A1   -20.562300     3A1    -1.441961
       4A1    -1.343122     1B2    -0.733428     1B1    -0.732635
       2B2    -0.699688     5A1    -0.639068     6A1    -0.577975
       2B1    -0.503336

    Alpha Virtual:

       7A1     0.035904     3B2     0.048652     3B1     0.131203
       8A1     0.131812     9A1     0.151596     4B2     0.159059
       4B1     0.184993     5B2     0.185919    10A1     0.190992
      11A1     0.261252     6B2     0.262370     1A2     0.265973
      12A1     0.275398     5B1     0.324694    13A1     0.380918
       7B2     0.385532    14A1     0.453825     8B2     0.473651
       2A2     0.611581    15A1     0.627005     9B2     0.627192
      16A1     0.639079     6B1     0.649712    17A1     0.716443
       3A2     0.732310    10B2     0.747717     7B1     0.759162
      18A1     0.786145     8B1     0.829457    11B2     0.849738
      19A1     0.858097     9B1     0.919969    12B2     0.942925
       4A2     0.945383    20A1     0.960450    21A1     0.981462
      10B1     0.991311    13B2     1.003248    22A1     1.057221
      14B2     1.060051    11B1     1.156461     5A2     1.193188
      23A1     1.200367    24A1     1.239702    15B2     1.271985
      16B2     1.324393    25A1     1.420652     6A2     1.508344
      12B1     1.583871    26A1     1.728922    27A1     1.839667
      17B2     1.847147    18B2     1.960960    13B1     1.976287
      19B2     2.006441    28A1     2.006909     7A2     2.017633
      14B1     2.037014    29A1     2.042931     8A2     2.068724
      30A1     2.094427    20B2     2.109341    15B1     2.149280
      31A1     2.201147    16B1     2.305976    21B2     2.322110
       9A2     2.340881    32A1     2.377580    33A1     2.413968
      34A1     2.484927    22B2     2.523850    17B1     2.549558
      35A1     2.603979    23B2     2.699982    18B1     2.726822
      36A1     2.842718    10A2     2.889027    24B2     2.901770
      25B2     3.668505    37A1     3.733232    11A2     4.043236
      19B1     4.053687    20B1     4.107730    26B2     4.115812
      38A1     4.215698    21B1     4.261714    27B2     4.275467
      39A1     4.305279    12A2     4.384310    22B1     4.418772
      40A1     4.500050    28B2     4.541420    41A1     4.762510
      29B2     4.852553    13A2     5.132068    30B2     5.179489
      31B2     5.229130    42A1     5.353769    23B1     5.518240
      43A1     5.652581    44A1     6.209434    24B1     6.312593
      32B2     6.315036    14A2     6.384759    45A1     6.396853
      25B1     6.419044    33B2     6.491338    46A1     6.508718
      34B2     6.546303    26B1     6.766645    15A2     6.821250
      47A1     6.823458    27B1     6.939965    48A1     6.941047
      35B2     6.978657    49A1     7.039479    28B1     7.133415
      29B1     7.262430    16A2     7.309924    36B2     7.328336
      17A2     7.357027    50A1     7.386853    51A1     7.545347
      52A1     7.879558    37B2     7.936355    53A1     8.776742
      38B2     8.797123    54A1    15.587900

    Beta Occupied:

       1A1   -20.653766     2A1   -20.562372     3A1    -1.343537
       4A1    -1.099879     1B2    -0.700030     5A1    -0.589143
       6A1    -0.538899     1B1    -0.503271

    Beta Virtual:

       2B2     0.033129     7A1     0.037160     2B1     0.047492
       3B2     0.069390     8A1     0.137394     9A1     0.154141
       3B1     0.161368     4B2     0.179711    10A1     0.191428
       4B1     0.225798     5B2     0.226002     6B2     0.264899
       1A2     0.266543    11A1     0.269220    12A1     0.279061
       5B1     0.326431    13A1     0.384558     7B2     0.393573
      14A1     0.455500     8B2     0.474122     9B2     0.628673
      15A1     0.640989     2A2     0.643533    16A1     0.660118
       6B1     0.660261    17A1     0.717413     3A2     0.733499
      10B2     0.761099     7B1     0.763256    18A1     0.800842
      19A1     0.862536     8B1     0.910618     9B1     0.937610
      11B2     0.939506     4A2     0.947887    12B2     0.952578
      20A1     0.962191    21A1     0.987112    13B2     1.031292
      10B1     1.036899    22A1     1.059122    14B2     1.069445
      11B1     1.168443     5A2     1.194219    23A1     1.204680
      15B2     1.272111    24A1     1.282452    16B2     1.342706
      25A1     1.444437     6A2     1.508653    12B1     1.584231
      26A1     1.748825    27A1     1.843217    17B2     1.848306
      18B2     1.972377    13B1     2.013682    28A1     2.031974
      19B2     2.032767    14B1     2.063755     7A2     2.070268
      29A1     2.101342    20B2     2.165446     8A2     2.186363
      30A1     2.187673    15B1     2.206780    31A1     2.243415
      16B1     2.315506     9A2     2.346037    21B2     2.354707
      32A1     2.381830    33A1     2.433345    34A1     2.485942
      22B2     2.531790    17B1     2.554439    35A1     2.607931
      23B2     2.700586    18B1     2.726999    36A1     2.843555
      10A2     2.889095    24B2     2.903306    25B2     3.668965
      37A1     3.733655    11A2     4.043385    19B1     4.102814
      38A1     4.221205    20B1     4.227958    21B1     4.263554
      26B2     4.266013    27B2     4.291960    39A1     4.321889
      12A2     4.384384    22B1     4.419653    40A1     4.525155
      28B2     4.543033    41A1     4.763466    29B2     4.853173
      13A2     5.132121    30B2     5.179561    31B2     5.229265
      42A1     5.354201    23B1     5.518247    43A1     5.652871
      44A1     6.214568    24B1     6.421239    32B2     6.423360
      14A2     6.461230    45A1     6.469713    25B1     6.473165
      33B2     6.508294    46A1     6.554759    34B2     6.586148
      26B1     6.774063    47A1     6.943318    15A2     7.009776
      48A1     7.013945    27B1     7.045341    35B2     7.087316
      49A1     7.116871    28B1     7.134894    29B1     7.262504
      16A2     7.309962    36B2     7.329213    17A2     7.357201
      50A1     7.388158    51A1     7.547022    52A1     7.879734
      37B2     7.936362    38B2     8.796992    53A1     8.858058
      54A1    15.587908

    Final Occupation by Irrep:
             A1    A2    B1    B2
    DOCC [     6,    0,    1,    1 ]
    SOCC [     0,    0,    1,    1 ]

  @UHF Final Energy:  -150.87185549318238

   => Energetics <=

    Nuclear Repulsion Energy =             23.1889788031006177
    One-Electron Energy =                -254.1650002411005858
    Two-Electron Energy =                  80.1041659448175807
    Total Energy =                       -150.8718554931824087

  UHF NO Occupations:
  HONO-2 :    6 A1 1.9970823
  HONO-1 :    2 B2 1.0000000
  HONO-0 :    2 B1 1.0000000
  LUNO+0 :    7 A1 0.0029177
  LUNO+1 :    8 A1 0.0016283
  LUNO+2 :    9 A1 0.0000024
  LUNO+3 :   10 A1 0.0000015

Computation Completed

Properties will be evaluated at   0.000000,   0.000000,   0.000000 [a0]

Properties computed using the SCF density matrix

  Nuclear Dipole Moment: [e a0]
     X:    -0.0000      Y:     0.0000      Z:    -1.6744

  Electronic Dipole Moment: [e a0]
     X:     0.0000      Y:     0.0000      Z:     2.5353

  Dipole Moment: [e a0]
     X:    -0.0000      Y:     0.0000      Z:     0.8609     Total:     0.8609

  Dipole Moment: [D]
     X:    -0.0000      Y:     0.0000      Z:     2.1883     Total:     2.1883

*** tstop() called on c4-12.compute.lan at Wed Mar 10 09:32:09 2021
Module time:
	user time   =      44.07 seconds =       0.73 minutes
	system time =       0.63 seconds =       0.01 minutes
	total time  =          4 seconds =       0.07 minutes
Total time:
	user time   =      44.07 seconds =       0.73 minutes
	system time =       0.63 seconds =       0.01 minutes
	total time  =          4 seconds =       0.07 minutes
 MINTS: Wrapper to libmints.
   by Justin Turney

   Calculation information:
      Number of threads:                12
      Number of atoms:                   4
      Number of AO shells:              46
      Number of SO shells:              37
      Number of primitives:             82
      Number of atomic orbitals:       160
      Number of basis functions:       138

      Number of irreps:                  4
      Integral cutoff                 0.00e+00
      Number of functions per irrep: [  54   17   29   38 ]

 OEINTS: Overlap, kinetic, potential, dipole, and quadrupole integrals
         stored in file 35.

      Computing two-electron integrals...done
      Computed 11518014 non-zero two-electron integrals.
        Stored in file 33.

*** tstart() called on c4-12.compute.lan
*** at Wed Mar 10 09:32:11 2021

	Wfn Parameters:
	--------------------
	Wavefunction         = CCSD_T
	Number of irreps     = 4
	Number of MOs        = 138
	Number of active MOs = 136
	AO-Basis             = NONE
	Semicanonical        = false
	Reference            = UHF
	Print Level          = 1

	IRREP	# MOs	# FZDC	# DOCC	# SOCC	# VIRT	# FZVR
	-----	-----	------	------	------	------	------
	 A1	   54	    2	    4	    0	    48	    0
	 A2	   17	    0	    0	    0	    17	    0
	 B1	   29	    0	    1	    1	    27	    0
	 B2	   38	    0	    1	    1	    36	    0
	Transforming integrals...
	IWL integrals will be deleted.
	(OO|OO)...
	Presorting SO-basis two-electron integrals.
	Sorting File: SO Ints (nn|nn) nbuckets = 1
	Transforming the one-electron integrals and constructing Fock matrices
	Starting AA/AB first half-transformation.
	Sorting AA/AB half-transformed integrals.
	Starting BB first half-transformation.
	Sorting BB half-transformed integrals.
	First half integral transformation complete.
	Starting AA second half-transformation.
	Starting AB second half-transformation.
	Starting BB second half-transformation.
	Two-electron integral transformation complete.
	(OO|OV)...
	Starting AA second half-transformation.
	Starting AB second half-transformation.
	Starting BB second half-transformation.
	Two-electron integral transformation complete.
	(OO|VV)...
	Starting AA second half-transformation.
	Starting AB second half-transformation.
	Starting BB second half-transformation.
	Two-electron integral transformation complete.
	(OV|OO)...
	Starting AA/AB first half-transformation.
	Sorting AA/AB half-transformed integrals.
	Starting BB first half-transformation.
	Sorting BB half-transformed integrals.
	First half integral transformation complete.
	Starting AA second half-transformation.
	Starting AB second half-transformation.
	Starting BB second half-transformation.
	Two-electron integral transformation complete.
	(OV|OV)...
	Starting AA second half-transformation.
	Starting AB second half-transformation.
	Starting BB second half-transformation.
	Two-electron integral transformation complete.
	(OV|VV)...
	Starting AA second half-transformation.
	Starting AB second half-transformation.
	Starting BB second half-transformation.
	Two-electron integral transformation complete.
	(VV|OO)...
	Starting AA/AB first half-transformation.
	Sorting AA/AB half-transformed integrals.
	Starting BB first half-transformation.
	Sorting BB half-transformed integrals.
	First half integral transformation complete.
	Starting AA second half-transformation.
	Starting AB second half-transformation.
	Starting BB second half-transformation.
	Two-electron integral transformation complete.
	(VV|OV)...
	Starting AA second half-transformation.
	Starting AB second half-transformation.
	Starting BB second half-transformation.
	Two-electron integral transformation complete.
	(VV|VV)...
	Starting AA second half-transformation.
	Starting AB second half-transformation.
	Starting BB second half-transformation.
	Two-electron integral transformation complete.
	Frozen core energy     =   -125.95512707245642

	Size of irrep 0 of <AB|CD> integrals:      5.040 (MW) /     40.320 (MB)
	Size of irrep 1 of <AB|CD> integrals:      3.197 (MW) /     25.576 (MB)
	Size of irrep 2 of <AB|CD> integrals:      3.640 (MW) /     29.124 (MB)
	Size of irrep 3 of <AB|CD> integrals:      4.783 (MW) /     38.264 (MB)
	Total:                                    16.660 (MW) /    133.283 (MB)

	Size of irrep 0 of <ab|cd> integrals:      5.327 (MW) /     42.615 (MB)
	Size of irrep 1 of <ab|cd> integrals:      3.430 (MW) /     27.439 (MB)
	Size of irrep 2 of <ab|cd> integrals:      3.893 (MW) /     31.142 (MB)
	Size of irrep 3 of <ab|cd> integrals:      5.072 (MW) /     40.572 (MB)
	Total:                                    17.721 (MW) /    141.768 (MB)

	Size of irrep 0 of <Ab|Cd> integrals:     21.912 (MW) /    175.294 (MB)
	Size of irrep 1 of <Ab|Cd> integrals:     13.242 (MW) /    105.939 (MB)
	Size of irrep 2 of <Ab|Cd> integrals:     15.062 (MW) /    120.497 (MB)
	Size of irrep 3 of <Ab|Cd> integrals:     19.705 (MW) /    157.638 (MB)
	Total:                                    69.921 (MW) /    559.368 (MB)

	Size of irrep 0 of <IA|BC> integrals:      1.469 (MW) /     11.748 (MB)
	Size of irrep 1 of <IA|BC> integrals:      0.694 (MW) /      5.550 (MB)
	Size of irrep 2 of <IA|BC> integrals:      0.908 (MW) /      7.266 (MB)
	Size of irrep 3 of <IA|BC> integrals:      1.198 (MW) /      9.588 (MB)
	Total:                                     4.269 (MW) /     34.152 (MB)

	Size of irrep 0 of <ia|bc> integrals:      1.220 (MW) /      9.758 (MB)
	Size of irrep 1 of <ia|bc> integrals:      0.493 (MW) /      3.941 (MB)
	Size of irrep 2 of <ia|bc> integrals:      0.698 (MW) /      5.588 (MB)
	Size of irrep 3 of <ia|bc> integrals:      0.959 (MW) /      7.675 (MB)
	Total:                                     3.370 (MW) /     26.961 (MB)

	Size of irrep 0 of <Ia|Bc> integrals:      1.507 (MW) /     12.058 (MB)
	Size of irrep 1 of <Ia|Bc> integrals:      0.721 (MW) /      5.764 (MB)
	Size of irrep 2 of <Ia|Bc> integrals:      0.939 (MW) /      7.514 (MB)
	Size of irrep 3 of <Ia|Bc> integrals:      1.234 (MW) /      9.872 (MB)
	Total:                                     4.401 (MW) /     35.208 (MB)

	Size of irrep 0 of <iA|bC> integrals:      1.194 (MW) /      9.549 (MB)
	Size of irrep 1 of <iA|bC> integrals:      0.477 (MW) /      3.814 (MB)
	Size of irrep 2 of <iA|bC> integrals:      0.671 (MW) /      5.371 (MB)
	Size of irrep 3 of <iA|bC> integrals:      0.928 (MW) /      7.422 (MB)
	Total:                                     3.270 (MW) /     26.156 (MB)

	Size of irrep 0 of tIjAb amplitudes:       0.094 (MW) /      0.749 (MB)
	Size of irrep 1 of tIjAb amplitudes:       0.015 (MW) /      0.116 (MB)
	Size of irrep 2 of tIjAb amplitudes:       0.047 (MW) /      0.373 (MB)
	Size of irrep 3 of tIjAb amplitudes:       0.053 (MW) /      0.426 (MB)
	Total:                                     0.208 (MW) /      1.664 (MB)

	Nuclear Rep. energy          =     23.18897880310062
	SCF energy                   =   -150.87185549318238
	One-electron energy          =    -84.76544056320002
	Two-electron (AA) energy     =     10.19891297386594
	Two-electron (BB) energy     =      5.42227079063581
	Two-electron (AB) energy     =     21.03854957487030
	Two-electron energy          =     36.65973333937205
	Reference energy             =   -150.87185549318377

*** tstop() called on c4-12.compute.lan at Wed Mar 10 09:32:29 2021
Module time:
	user time   =      48.82 seconds =       0.81 minutes
	system time =       9.14 seconds =       0.15 minutes
	total time  =         18 seconds =       0.30 minutes
Total time:
	user time   =      98.53 seconds =       1.64 minutes
	system time =      10.14 seconds =       0.17 minutes
	total time  =         24 seconds =       0.40 minutes
            **************************
            *                        *
            *        CCENERGY        *
            *                        *
            **************************

    Nuclear Rep. energy (wfn)     =   23.188978803100618
    SCF energy          (wfn)     = -150.871855493182380
    Reference energy    (file100) = -150.871855493183773

    Input parameters:
    -----------------
    Wave function   =     CCSD_T
    Reference wfn   =     UHF
    Brueckner       =     No
    Memory (Mbytes) =     4000.0
    Maxiter         =     50
    R_Convergence   =     1.0e-10
    E_Convergence   =     1.0e-10
    Restart         =     Yes
    DIIS            =     Yes
    AO Basis        =     NONE
    ABCD            =     NEW
    Cache Level     =     2
    Cache Type      =     LRU
    Print Level     =     1
    Num. of threads =     12
    # Amps to Print =     10
    Print MP2 Amps? =     No
    Analyze T2 Amps =     No
    Print Pair Ener =     No
    Local CC        =     No
    SCS-MP2         =     False
    SCSN-MP2        =     False
    SCS-CCSD        =     False

MP2 correlation energy -0.4168224737725276
                Solving CC Amplitude Equations
                ------------------------------
  Iter             Energy              RMS        T1Diag      D1Diag    New D1Diag    D2Diag
  ----     ---------------------    ---------   ----------  ----------  ----------   --------
     0        -0.416822473772528    0.000e+00    0.000000    0.000000    0.000000    0.000000
     1        -0.427525015731314    5.696e-02    0.010515    0.000000    0.000000    0.000000
     2        -0.435711147376745    1.695e-02    0.011041    0.000000    0.000000    0.000000
     3        -0.437827114807685    8.598e-03    0.012919    0.000000    0.000000    0.000000
     4        -0.437702944738779    2.522e-03    0.013289    0.000000    0.000000    0.000000
     5        -0.437686198062512    1.345e-03    0.013452    0.000000    0.000000    0.000000
     6        -0.437713283306181    5.217e-04    0.013481    0.000000    0.000000    0.000000
     7        -0.437718182627434    2.780e-04    0.013479    0.000000    0.000000    0.000000
     8        -0.437718728991442    8.695e-05    0.013475    0.000000    0.000000    0.000000
     9        -0.437720112026106    4.639e-05    0.013476    0.000000    0.000000    0.000000
    10        -0.437718490667294    2.276e-05    0.013477    0.000000    0.000000    0.000000
    11        -0.437718641661618    1.261e-05    0.013478    0.000000    0.000000    0.000000
    12        -0.437718590165713    5.469e-06    0.013478    0.000000    0.000000    0.000000
    13        -0.437718632612135    2.052e-06    0.013479    0.000000    0.000000    0.000000
    14        -0.437718699130811    8.194e-07    0.013479    0.000000    0.000000    0.000000
    15        -0.437718703870641    2.232e-07    0.013479    0.000000    0.000000    0.000000
    16        -0.437718704650453    1.211e-07    0.013479    0.000000    0.000000    0.000000
    17        -0.437718705871625    3.849e-08    0.013479    0.000000    0.000000    0.000000
    18        -0.437718705244206    1.799e-08    0.013479    0.000000    0.000000    0.000000

      * MP2 total energy                      = -151.288677966956300
      * CCSD total energy                     = -151.309574198292694
      * CCSD(T) total energy                     = -151.321944985962034
*** Psi4 exiting successfully. Buy a developer a beer!
