                               Psi4 1.3.2 release

  ==> Input File <==

--------------------------------------------------------------------------
memory 4 GB

molecule  {
0 3
O   -1.558088525300   -0.023120912100    0.000000000000
H   -0.595019690100   -0.017336672000    0.000000000000
H   -1.818995628700    0.900569161900    0.000000000000
O    1.710193436400   -0.032530764300    0.000000000000
}
set {
basis aug-cc-pvtz
reference uhf
e_convergence 10
scf_type pk
freeze_core true
}

set ccenergy {
e_convergence 10
r_convergence 10
}

e = energy('ccsd(t)')

print_out('Stephenergy {}'.format(e))

--------------------------------------------------------------------------

    Molecular point group: cs

    Geometry (in Angstrom), charge = 0, multiplicity = 3:

       Center              X                  Y                   Z               Mass
    ------------   -----------------  -----------------  -----------------  -----------------
         O           -1.558088525294    -0.023120912104     0.000000000000    15.994914619570
         H           -0.595019690094    -0.017336672004     0.000000000000     1.007825032230
         H           -1.818995628694     0.900569161896     0.000000000000     1.007825032230
         O            1.710193436406    -0.032530764304     0.000000000000    15.994914619570

  Charge       = 0
  Multiplicity = 3
  Basis Set: AUG-CC-PVTZ
    Blend: AUG-CC-PVTZ

    Orbital Energies [Eh]
    ---------------------

    Alpha Occupied:

       1Ap   -20.733466     2Ap   -20.559000     3Ap    -1.442561
       4Ap    -1.343172     5Ap    -0.733245     1App   -0.733126
       6Ap    -0.711968     7Ap    -0.635571     8Ap    -0.573852
       2App   -0.502240

    Alpha Virtual:

       9Ap     0.034506    10Ap     0.053281    11Ap     0.127958
       3App    0.131774    12Ap     0.148014    13Ap     0.160923
      14Ap     0.183102     4App    0.185171    15Ap     0.209960
      16Ap     0.240094    17Ap     0.270453     5App    0.282083
      18Ap     0.293121     6App    0.322407    19Ap     0.368440
      20Ap     0.390662    21Ap     0.459376    22Ap     0.558496
       7App    0.601001    23Ap     0.607983    24Ap     0.645834
      25Ap     0.666053     8App    0.704241    26Ap     0.713286
       9App    0.734143    10App    0.746604    27Ap     0.763636
      28Ap     0.794353    11App    0.824389    29Ap     0.846870
      30Ap     0.859469    12App    0.879849    31Ap     0.919651
      32Ap     0.938988    13App    0.942510    33Ap     0.953809
      14App    0.980087    34Ap     0.986283    35Ap     1.042765
      36Ap     1.118879    37Ap     1.171714    15App    1.172052
      38Ap     1.194057    16App    1.243690    39Ap     1.268882
      40Ap     1.305289    17App    1.527097    41Ap     1.558611
      18App    1.600472    42Ap     1.665700    43Ap     1.805336
      44Ap     1.815713    19App    1.976706    45Ap     1.976757
      46Ap     2.001504    20App    2.010828    47Ap     2.019092
      21App    2.042258    48Ap     2.054334    22App    2.112496
      49Ap     2.151228    50Ap     2.158785    23App    2.194617
      51Ap     2.282366    24App    2.291252    52Ap     2.326733
      53Ap     2.401929    25App    2.440393    54Ap     2.457842
      26App    2.500378    55Ap     2.514679    56Ap     2.597694
      57Ap     2.665111    27App    2.728094    58Ap     2.743021
      59Ap     2.865879    60Ap     2.941914    28App    2.944209
      61Ap     3.694991    62Ap     3.868117    29App    4.028539
      30App    4.056643    63Ap     4.074158    31App    4.164892
      64Ap     4.207283    65Ap     4.265899    32App    4.311619
      66Ap     4.377274    33App    4.392627    34App    4.435256
      67Ap     4.441634    68Ap     4.565449    69Ap     4.776058
      70Ap     4.946094    35App    5.160007    71Ap     5.168792
      72Ap     5.316939    73Ap     5.374238    36App    5.523294
      74Ap     5.703023    75Ap     6.184950    37App    6.311614
      76Ap     6.311645    38App    6.370107    77Ap     6.372432
      39App    6.501968    78Ap     6.518422    79Ap     6.547226
      80Ap     6.617558    40App    6.721433    81Ap     6.812646
      41App    6.818419    82Ap     6.900835    42App    6.930932
      83Ap     6.960876    84Ap     7.046574    43App    7.147381
      44App    7.273762    45App    7.323295    85Ap     7.331474
      86Ap     7.359210    46App    7.434221    87Ap     7.658537
      88Ap     7.945567    89Ap     7.963109    90Ap     8.804556
      91Ap     9.258888    92Ap    16.495585

    Beta Occupied:

       1Ap   -20.654695     2Ap   -20.559114     3Ap    -1.343649
       4Ap    -1.100067     5Ap    -0.711408     6Ap    -0.578993
       7Ap    -0.541574     1App   -0.502291

    Beta Virtual:

       8Ap     0.034257     9Ap     0.046602     2App    0.048527
      10Ap     0.057936    11Ap     0.144074    12Ap     0.151217
       3App    0.160126    13Ap     0.179607    14Ap     0.209482
      15Ap     0.217864     4App    0.226337    16Ap     0.249453
      17Ap     0.272484     5App    0.282376    18Ap     0.295528
       6App    0.325244    19Ap     0.371999    20Ap     0.399972
      21Ap     0.460001    22Ap     0.561088     7App    0.633459
      23Ap     0.638587    24Ap     0.648575    25Ap     0.669173
      26Ap     0.713999     8App    0.717973     9App    0.735274
      10App    0.747923    27Ap     0.780606    28Ap     0.806106
      29Ap     0.852384    11App    0.864165    30Ap     0.915694
      12App    0.933015    31Ap     0.939241    13App    0.950047
      32Ap     0.950136    33Ap     0.974699    34Ap     1.013969
      14App    1.023988    35Ap     1.045660    36Ap     1.135202
      15App    1.175343    37Ap     1.178220    38Ap     1.230311
      16App    1.254267    39Ap     1.270553    40Ap     1.315999
      17App    1.527940    41Ap     1.565422    18App    1.601832
      42Ap     1.694830    43Ap     1.809511    44Ap     1.819937
      45Ap     2.011130    19App    2.014839    46Ap     2.015090
      20App    2.047035    47Ap     2.059736    21App    2.156812
      22App    2.179109    48Ap     2.179798    49Ap     2.196634
      50Ap     2.209176    23App    2.236167    24App    2.293037
      51Ap     2.306999    52Ap     2.336183    53Ap     2.412135
      25App    2.442729    54Ap     2.458855    26App    2.509104
      55Ap     2.522319    56Ap     2.603861    57Ap     2.674870
      27App    2.729023    58Ap     2.748000    59Ap     2.870369
      60Ap     2.944402    28App    2.944915    61Ap     3.695444
      62Ap     3.870164    29App    4.028852    30App    4.141536
      63Ap     4.190559    64Ap     4.241977    31App    4.250168
      65Ap     4.284138    32App    4.311710    33App    4.392806
      66Ap     4.395391    34App    4.436820    67Ap     4.469796
      68Ap     4.566371    69Ap     4.777708    70Ap     4.947779
      35App    5.159987    71Ap     5.169218    72Ap     5.317141
      73Ap     5.375115    36App    5.523333    74Ap     5.703524
      75Ap     6.185504    37App    6.420578    76Ap     6.420599
      38App    6.445805    77Ap     6.448346    78Ap     6.534272
      39App    6.557311    79Ap     6.587166    80Ap     6.664449
      40App    6.725014    81Ap     6.900956    41App    7.005018
      82Ap     7.005605    42App    7.039341    83Ap     7.067922
      84Ap     7.127649    43App    7.149633    44App    7.274152
      45App    7.324099    85Ap     7.331469    86Ap     7.359701
      46App    7.434670    87Ap     7.660307    88Ap     7.945824
      89Ap     7.963357    90Ap     8.806882    91Ap     9.333653
      92Ap    16.496061

    Final Occupation by Irrep:
             Ap   App
    DOCC [     7,    1 ]
    SOCC [     1,    1 ]

  @UHF Final Energy:  -150.87467670069657

   => Energetics <=

    Nuclear Repulsion Energy =             22.5106444513726025
    One-Electron Energy =                -252.8106494479105208
    Two-Electron Energy =                  79.4253282958413536
    Total Energy =                       -150.8746767006965683

  UHF NO Occupations:
  HONO-2 :    7 Ap 1.9970327
  HONO-1 :    8 Ap 1.0000000
  HONO-0 :    2App 1.0000000
  LUNO+0 :    9 Ap 0.0029673
  LUNO+1 :   10 Ap 0.0017232
  LUNO+2 :   11 Ap 0.0000024
  LUNO+3 :   12 Ap 0.0000014

Computation Completed

Properties will be evaluated at   0.000000,   0.000000,   0.000000 [a0]

Properties computed using the SCF density matrix

  Nuclear Dipole Moment: [e a0]
     X:    -2.2623      Y:     0.8277      Z:     0.0000

  Electronic Dipole Moment: [e a0]
     X:     2.8151      Y:    -0.2172      Z:     0.0000

  Dipole Moment: [e a0]
     X:     0.5528      Y:     0.6105      Z:     0.0000     Total:     0.8236

  Dipole Moment: [D]
     X:     1.4050      Y:     1.5517      Z:     0.0000     Total:     2.0933

*** tstop() called on c1-9.compute.lan at Tue Mar  9 14:40:39 2021
Module time:
	user time   =      71.56 seconds =       1.19 minutes
	system time =       4.36 seconds =       0.07 minutes
	total time  =          9 seconds =       0.15 minutes
Total time:
	user time   =      71.56 seconds =       1.19 minutes
	system time =       4.36 seconds =       0.07 minutes
	total time  =          9 seconds =       0.15 minutes
 MINTS: Wrapper to libmints.
   by Justin Turney

   Calculation information:
      Number of threads:                12
      Number of atoms:                   4
      Number of AO shells:              46
      Number of SO shells:              46
      Number of primitives:             82
      Number of atomic orbitals:       160
      Number of basis functions:       138

      Number of irreps:                  2
      Integral cutoff                 0.00e+00
      Number of functions per irrep: [  92   46 ]

 OEINTS: Overlap, kinetic, potential, dipole, and quadrupole integrals
         stored in file 35.

      Computing two-electron integrals...done
      Computed 22943615 non-zero two-electron integrals.
        Stored in file 33.

*** tstart() called on c1-9.compute.lan
*** at Tue Mar  9 14:40:42 2021

	Wfn Parameters:
	--------------------
	Wavefunction         = CCSD_T
	Number of irreps     = 2
	Number of MOs        = 138
	Number of active MOs = 136
	AO-Basis             = NONE
	Semicanonical        = false
	Reference            = UHF
	Print Level          = 1

	IRREP	# MOs	# FZDC	# DOCC	# SOCC	# VIRT	# FZVR
	-----	-----	------	------	------	------	------
	 Ap	   92	    2	    5	    1	    84	    0
	 App	   46	    0	    1	    1	    44	    0
	Transforming integrals...
	IWL integrals will be deleted.
	(OO|OO)...
	Presorting SO-basis two-electron integrals.
	Sorting File: SO Ints (nn|nn) nbuckets = 1
	Transforming the one-electron integrals and constructing Fock matrices
	Starting AA/AB first half-transformation.
	Sorting AA/AB half-transformed integrals.
	Starting BB first half-transformation.
	Sorting BB half-transformed integrals.
	First half integral transformation complete.
	Starting AA second half-transformation.
	Starting AB second half-transformation.
	Starting BB second half-transformation.
	Two-electron integral transformation complete.
	(OO|OV)...
	Starting AA second half-transformation.
	Starting AB second half-transformation.
	Starting BB second half-transformation.
	Two-electron integral transformation complete.
	(OO|VV)...
	Starting AA second half-transformation.
	Starting AB second half-transformation.
	Starting BB second half-transformation.
	Two-electron integral transformation complete.
	(OV|OO)...
	Starting AA/AB first half-transformation.
	Sorting AA/AB half-transformed integrals.
	Starting BB first half-transformation.
	Sorting BB half-transformed integrals.
	First half integral transformation complete.
	Starting AA second half-transformation.
	Starting AB second half-transformation.
	Starting BB second half-transformation.
	Two-electron integral transformation complete.
	(OV|OV)...
	Starting AA second half-transformation.
	Starting AB second half-transformation.
	Starting BB second half-transformation.
	Two-electron integral transformation complete.
	(OV|VV)...
	Starting AA second half-transformation.
	Starting AB second half-transformation.
	Starting BB second half-transformation.
	Two-electron integral transformation complete.
	(VV|OO)...
	Starting AA/AB first half-transformation.
	Sorting AA/AB half-transformed integrals.
	Starting BB first half-transformation.
	Sorting BB half-transformed integrals.
	First half integral transformation complete.
	Starting AA second half-transformation.
	Starting AB second half-transformation.
	Starting BB second half-transformation.
	Two-electron integral transformation complete.
	(VV|OV)...
	Starting AA second half-transformation.
	Starting AB second half-transformation.
	Starting BB second half-transformation.
	Two-electron integral transformation complete.
	(VV|VV)...
	Starting AA second half-transformation.
	Starting AB second half-transformation.
	Starting BB second half-transformation.
	Two-electron integral transformation complete.
	Frozen core energy     =   -125.69509892134037

	Size of irrep 0 of <AB|CD> integrals:     19.643 (MW) /    157.141 (MB)
	Size of irrep 1 of <AB|CD> integrals:     13.660 (MW) /    109.283 (MB)
	Total:                                    33.303 (MW) /    266.424 (MB)

	Size of irrep 0 of <ab|cd> integrals:     20.794 (MW) /    166.349 (MB)
	Size of irrep 1 of <ab|cd> integrals:     14.631 (MW) /    117.045 (MB)
	Total:                                    35.424 (MW) /    283.394 (MB)

	Size of irrep 0 of <Ab|Cd> integrals:     83.174 (MW) /    665.395 (MB)
	Size of irrep 1 of <Ab|Cd> integrals:     56.550 (MW) /    452.403 (MB)
	Total:                                   139.725 (MW) /   1117.798 (MB)

	Size of irrep 0 of <IA|BC> integrals:      5.323 (MW) /     42.586 (MB)
	Size of irrep 1 of <IA|BC> integrals:      3.193 (MW) /     25.547 (MB)
	Total:                                     8.517 (MW) /     68.133 (MB)

	Size of irrep 0 of <ia|bc> integrals:      4.348 (MW) /     34.780 (MB)
	Size of irrep 1 of <ia|bc> integrals:      2.372 (MW) /     18.972 (MB)
	Total:                                     6.719 (MW) /     53.752 (MB)

	Size of irrep 0 of <Ia|Bc> integrals:      5.472 (MW) /     43.776 (MB)
	Size of irrep 1 of <Ia|Bc> integrals:      3.309 (MW) /     26.470 (MB)
	Total:                                     8.781 (MW) /     70.246 (MB)

	Size of irrep 0 of <iA|bC> integrals:      4.232 (MW) /     33.853 (MB)
	Size of irrep 1 of <iA|bC> integrals:      2.286 (MW) /     18.289 (MB)
	Total:                                     6.518 (MW) /     52.142 (MB)

	Size of irrep 0 of tIjAb amplitudes:       0.292 (MW) /      2.335 (MB)
	Size of irrep 1 of tIjAb amplitudes:       0.120 (MW) /      0.963 (MB)
	Total:                                     0.412 (MW) /      3.297 (MB)

	Nuclear Rep. energy          =     22.51064445137260
	SCF energy                   =   -150.87467670069657
	One-electron energy          =    -83.92672687240577
	Two-electron (AA) energy     =     10.05706145216703
	Two-electron (BB) energy     =      5.35198088912236
	Two-electron (AB) energy     =     20.82746230038578
	Two-electron energy          =     36.23650464167518
	Reference energy             =   -150.87467670069836

*** tstop() called on c1-9.compute.lan at Tue Mar  9 14:41:32 2021
Module time:
	user time   =     148.09 seconds =       2.47 minutes
	system time =      30.78 seconds =       0.51 minutes
	total time  =         50 seconds =       0.83 minutes
Total time:
	user time   =     226.23 seconds =       3.77 minutes
	system time =      35.98 seconds =       0.60 minutes
	total time  =         62 seconds =       1.03 minutes
            **************************
            *                        *
            *        CCENERGY        *
            *                        *
            **************************

    Nuclear Rep. energy (wfn)     =   22.510644451372603
    SCF energy          (wfn)     = -150.874676700696568
    Reference energy    (file100) = -150.874676700698359

    Input parameters:
    -----------------
    Wave function   =     CCSD_T
    Reference wfn   =     UHF
    Brueckner       =     No
    Memory (Mbytes) =     4000.0
    Maxiter         =     50
    R_Convergence   =     1.0e-10
    E_Convergence   =     1.0e-10
    Restart         =     Yes
    DIIS            =     Yes
    AO Basis        =     NONE
    ABCD            =     NEW
    Cache Level     =     2
    Cache Type      =     LRU
    Print Level     =     1
    Num. of threads =     12
    # Amps to Print =     10
    Print MP2 Amps? =     No
    Analyze T2 Amps =     No
    Print Pair Ener =     No
    Local CC        =     No
    SCS-MP2         =     False
    SCSN-MP2        =     False
    SCS-CCSD        =     False

MP2 correlation energy -0.4162625726344549
                Solving CC Amplitude Equations
                ------------------------------
  Iter             Energy              RMS        T1Diag      D1Diag    New D1Diag    D2Diag
  ----     ---------------------    ---------   ----------  ----------  ----------   --------
     0        -0.416262572634455    0.000e+00    0.000000    0.000000    0.000000    0.000000
     1        -0.427048181987785    5.669e-02    0.010491    0.000000    0.000000    0.000000
     2        -0.435123329134802    1.684e-02    0.010977    0.000000    0.000000    0.000000
     3        -0.437235258358094    8.518e-03    0.012830    0.000000    0.000000    0.000000
     4        -0.437110023996154    2.524e-03    0.013190    0.000000    0.000000    0.000000
     5        -0.437096376659037    1.301e-03    0.013341    0.000000    0.000000    0.000000
     6        -0.437123084566868    5.084e-04    0.013359    0.000000    0.000000    0.000000
     7        -0.437127663548994    2.497e-04    0.013352    0.000000    0.000000    0.000000
     8        -0.437128296900315    8.638e-05    0.013346    0.000000    0.000000    0.000000
     9        -0.437129632542797    5.942e-05    0.013347    0.000000    0.000000    0.000000
    10        -0.437128256072865    4.981e-05    0.013347    0.000000    0.000000    0.000000
    11        -0.437128351610864    4.754e-05    0.013348    0.000000    0.000000    0.000000
    12        -0.437128172187360    4.630e-05    0.013349    0.000000    0.000000    0.000000
    13        -0.437128128418621    4.549e-05    0.013351    0.000000    0.000000    0.000000
    14        -0.437128851323400    4.434e-05    0.013359    0.000000    0.000000    0.000000
    15        -0.437129085206263    4.095e-05    0.013388    0.000000    0.000000    0.000000
    16        -0.437128914040275    3.136e-05    0.013487    0.000000    0.000000    0.000000
    17        -0.437128700451456    1.680e-05    0.013555    0.000000    0.000000    0.000000
    18        -0.437128586712240    7.901e-06    0.013577    0.000000    0.000000    0.000000
    19        -0.437128824737759    3.430e-06    0.013583    0.000000    0.000000    0.000000
    20        -0.437128937029614    1.525e-06    0.013584    0.000000    0.000000    0.000000
    21        -0.437128942307425    5.818e-07    0.013584    0.000000    0.000000    0.000000
    22        -0.437128942350540    2.384e-07    0.013584    0.000000    0.000000    0.000000
    23        -0.437128942098579    1.133e-07    0.013584    0.000000    0.000000    0.000000
    24        -0.437128941770366    4.249e-08    0.013584    0.000000    0.000000    0.000000
    25        -0.437128942595998    2.120e-08    0.013584    0.000000    0.000000    0.000000
    26        -0.437128942957008    1.178e-08    0.013584    0.000000    0.000000    0.000000
    27        -0.437128943039479    9.579e-09    0.013584    0.000000    0.000000    0.000000
    28        -0.437128943034845    8.982e-09    0.013584    0.000000    0.000000    0.000000
    29        -0.437128942980318    8.528e-09    0.013584    0.000000    0.000000    0.000000
    30        -0.437128942869662    7.955e-09    0.013584    0.000000    0.000000    0.000000
    31        -0.437128942908898    6.526e-09    0.013584    0.000000    0.000000    0.000000
    32        -0.437128943049475    3.939e-09    0.013584    0.000000    0.000000    0.000000
    33        -0.437128943088302    1.691e-09    0.013584    0.000000    0.000000    0.000000
    34        -0.437128943106164    7.403e-10    0.013584    0.000000    0.000000    0.000000
    35        -0.437128943107857    3.296e-10    0.013584    0.000000    0.000000    0.000000
    36        -0.437128943105945    1.298e-10    0.013584    0.000000    0.000000    0.000000

      * MP2 total energy                      = -151.290939273332810
      * CCSD total energy                     = -151.311805643803012
      * CCSD(T) total energy                     = -151.324115755833674
*** Psi4 exiting successfully. Buy a developer a beer!
