                               Psi4 1.3.2 release

  ==> Input File <==

--------------------------------------------------------------------------
memory 4 GB

molecule  {
0 3
O    0.000000000000   -0.000266073240    1.270171670022
H    0.000000000000   -0.758170011596    1.859912760912
H   -0.000000000000    0.761489426804    1.859188727532
O    0.000000000000    0.000056919904   -1.504508874478
}
set {
basis aug-cc-pvtz
reference uhf
e_convergence 10
scf_type pk
freeze_core true
}

set ccenergy {
e_convergence 10
r_convergence 10
}

e = energy('ccsd(t)')

print_out('Stephenergy {}'.format(e))

--------------------------------------------------------------------------

    Molecular point group: cs

    Geometry (in Angstrom), charge = 0, multiplicity = 3:

       Center              X                  Y                   Z               Mass
    ------------   -----------------  -----------------  -----------------  -----------------
         O            0.000266073240    -1.270171670022     0.000000000000    15.994914619570
         H            0.758170011596    -1.859912760912     0.000000000000     1.007825032230
         H           -0.761489426804    -1.859188727532     0.000000000000     1.007825032230
         O           -0.000056919904     1.504508874478     0.000000000000    15.994914619570

  Charge       = 0
  Multiplicity = 3
  Basis Set: AUG-CC-PVTZ
    Blend: AUG-CC-PVTZ

    Orbital Energies [Eh]
    ---------------------

    Alpha Occupied:

       1Ap   -20.684529     2Ap   -20.571199     3Ap    -1.393949
       4Ap    -1.355276     5Ap    -0.718714     6Ap    -0.688197
       1App   -0.685251     7Ap    -0.586446     8Ap    -0.586261
       2App   -0.513968

    Alpha Virtual:

       9Ap     0.029552    10Ap     0.047672    11Ap     0.118599
       3App    0.154051    12Ap     0.159470    13Ap     0.180289
      14Ap     0.186920     4App    0.192748    15Ap     0.198009
       5App    0.263712    16Ap     0.264037    17Ap     0.264772
      18Ap     0.314356     6App    0.326714    19Ap     0.376040
      20Ap     0.380350    21Ap     0.449971    22Ap     0.464341
      23Ap     0.599990     7App    0.643617    24Ap     0.647420
       8App    0.658158    25Ap     0.666513    26Ap     0.696151
       9App    0.721701    27Ap     0.722499    10App    0.767507
      28Ap     0.792753    29Ap     0.818539    11App    0.837801
      30Ap     0.861025    12App    0.901226    31Ap     0.918620
      13App    0.924714    32Ap     0.946260    33Ap     0.979674
      34Ap     0.989725    14App    1.012605    35Ap     1.046309
      36Ap     1.051406    15App    1.121925    16App    1.176716
      37Ap     1.191610    38Ap     1.198749    39Ap     1.326825
      40Ap     1.336497    41Ap     1.443288    17App    1.507244
      18App    1.594016    42Ap     1.666485    43Ap     1.812422
      44Ap     1.822061    45Ap     1.976730    46Ap     2.040757
      19App    2.047759    47Ap     2.054050    20App    2.056758
      21App    2.058909    48Ap     2.079182    49Ap     2.114900
      22App    2.118691    50Ap     2.135161    51Ap     2.140268
      23App    2.145198    52Ap     2.252109    53Ap     2.267146
      24App    2.303357    25App    2.311829    26App    2.434024
      54Ap     2.469953    55Ap     2.482164    56Ap     2.486459
      57Ap     2.695593    27App    2.715926    58Ap     2.720848
      59Ap     2.839914    60Ap     2.862104    28App    2.880087
      61Ap     3.690559    62Ap     3.753208    29App    4.013184
      30App    4.079389    31App    4.099244    63Ap     4.139911
      64Ap     4.183229    65Ap     4.281024    32App    4.289273
      66Ap     4.350927    33App    4.381626    67Ap     4.427326
      34App    4.450998    68Ap     4.515217    69Ap     4.788457
      70Ap     4.839447    71Ap     5.141275    35App    5.144002
      72Ap     5.247791    73Ap     5.339591    36App    5.515858
      74Ap     5.683789    75Ap     6.198401    37App    6.388924
      76Ap     6.408846    38App    6.410138    77Ap     6.423576
      39App    6.435491    78Ap     6.485542    79Ap     6.535694
      80Ap     6.581832    40App    6.716102    41App    6.902276
      81Ap     6.905558    42App    6.924506    82Ap     6.939617
      83Ap     6.985624    84Ap     7.046577    43App    7.134750
      44App    7.277848    45App    7.306010    85Ap     7.308471
      46App    7.352298    86Ap     7.437906    87Ap     7.542074
      88Ap     7.908050    89Ap     7.915875    90Ap     8.804277
      91Ap     8.860237    92Ap    15.769606

    Beta Occupied:

       1Ap   -20.605663     2Ap   -20.570737     3Ap    -1.354590
       4Ap    -1.051143     5Ap    -0.718385     6Ap    -0.588174
       1App   -0.513308     7Ap    -0.495680

    Beta Virtual:

       8Ap     0.029392     9Ap     0.047752     2App    0.086504
      10Ap     0.091923    11Ap     0.140939    12Ap     0.167039
       3App    0.170625    13Ap     0.180919    14Ap     0.190508
      15Ap     0.225534     4App    0.253278     5App    0.263714
      16Ap     0.264491    17Ap     0.288395    18Ap     0.316747
       6App    0.328017    19Ap     0.380522    20Ap     0.386387
      21Ap     0.451055    22Ap     0.464536    23Ap     0.601607
      24Ap     0.660469     7App    0.667436     8App    0.672579
      25Ap     0.673622    26Ap     0.713389     9App    0.722166
      27Ap     0.734711    10App    0.778774    28Ap     0.806053
      11App    0.846936    29Ap     0.850666    12App    0.925101
      30Ap     0.928058    31Ap     0.936370    32Ap     0.953319
      33Ap     0.983417    13App    0.986618    34Ap     0.996885
      35Ap     1.052131    36Ap     1.052849    14App    1.060417
      15App    1.137953    16App    1.176912    37Ap     1.193101
      38Ap     1.201474    39Ap     1.329220    40Ap     1.393131
      41Ap     1.482666    17App    1.507661    18App    1.595985
      42Ap     1.696642    43Ap     1.817432    44Ap     1.822406
      45Ap     1.978120    46Ap     2.070280    19App    2.070814
      47Ap     2.071475    20App    2.081398    48Ap     2.099472
      21App    2.100298    49Ap     2.155517    50Ap     2.180881
      22App    2.201912    51Ap     2.207661    23App    2.258253
      52Ap     2.308893    24App    2.311958    53Ap     2.318948
      25App    2.319204    26App    2.441855    54Ap     2.482389
      55Ap     2.485903    56Ap     2.514768    57Ap     2.702970
      27App    2.717627    58Ap     2.721751    59Ap     2.852022
      60Ap     2.862298    28App    2.880121    61Ap     3.691427
      62Ap     3.753343    29App    4.013212    30App    4.081713
      63Ap     4.172057    64Ap     4.218721    31App    4.259603
      65Ap     4.292029    32App    4.294009    33App    4.381732
      66Ap     4.426195    34App    4.456133    67Ap     4.467713
      68Ap     4.515294    69Ap     4.799227    70Ap     4.839611
      71Ap     5.141454    35App    5.144076    72Ap     5.248197
      73Ap     5.340238    36App    5.515968    74Ap     5.688291
      75Ap     6.200053    37App    6.485596    38App    6.486968
      76Ap     6.487752    77Ap     6.493070    39App    6.499205
      78Ap     6.521141    79Ap     6.607315    80Ap     6.609802
      40App    6.722959    81Ap     6.955028    41App    7.038058
      82Ap     7.041919    42App    7.084834    83Ap     7.097486
      43App    7.135152    84Ap     7.173944    44App    7.281966
      45App    7.306294    85Ap     7.308657    46App    7.352709
      86Ap     7.440664    87Ap     7.543146    88Ap     7.908596
      89Ap     7.916238    90Ap     8.804648    91Ap     8.939658
      92Ap    15.769923

    Final Occupation by Irrep:
             Ap   App
    DOCC [     7,    1 ]
    SOCC [     1,    1 ]

  @UHF Final Energy:  -150.87352101511476

   => Energetics <=

    Nuclear Repulsion Energy =             23.8138680322176697
    One-Electron Energy =                -255.6933115825389109
    Two-Electron Energy =                  81.0059225352064800
    Total Energy =                       -150.8735210151147612

  UHF NO Occupations:
  HONO-2 :    7 Ap 1.9970493
  HONO-1 :    8 Ap 1.0000000
  HONO-0 :    2App 1.0000000
  LUNO+0 :    9 Ap 0.0029507
  LUNO+1 :   10 Ap 0.0017949
  LUNO+2 :   11 Ap 0.0000216
  LUNO+3 :   12 Ap 0.0000024

Computation Completed

Properties will be evaluated at   0.000000,   0.000000,   0.000000 [a0]

Properties computed using the SCF density matrix

  Nuclear Dipole Moment: [e a0]
     X:    -0.0031      Y:    -3.4854      Z:     0.0000

  Electronic Dipole Moment: [e a0]
     X:     0.0010      Y:     2.6490      Z:     0.0000

  Dipole Moment: [e a0]
     X:    -0.0021      Y:    -0.8364      Z:     0.0000     Total:     0.8364

  Dipole Moment: [D]
     X:    -0.0053      Y:    -2.1259      Z:     0.0000     Total:     2.1259

*** tstop() called on d3-3.compute.lan at Wed Mar 10 10:56:03 2021
Module time:
	user time   =      40.44 seconds =       0.67 minutes
	system time =       1.68 seconds =       0.03 minutes
	total time  =          5 seconds =       0.08 minutes
Total time:
	user time   =      40.44 seconds =       0.67 minutes
	system time =       1.68 seconds =       0.03 minutes
	total time  =          5 seconds =       0.08 minutes
 MINTS: Wrapper to libmints.
   by Justin Turney

   Calculation information:
      Number of threads:                12
      Number of atoms:                   4
      Number of AO shells:              46
      Number of SO shells:              46
      Number of primitives:             82
      Number of atomic orbitals:       160
      Number of basis functions:       138

      Number of irreps:                  2
      Integral cutoff                 0.00e+00
      Number of functions per irrep: [  92   46 ]

 OEINTS: Overlap, kinetic, potential, dipole, and quadrupole integrals
         stored in file 35.

      Computing two-electron integrals...done
      Computed 22923600 non-zero two-electron integrals.
        Stored in file 33.

*** tstart() called on d3-3.compute.lan
*** at Wed Mar 10 10:56:07 2021

	Wfn Parameters:
	--------------------
	Wavefunction         = CCSD_T
	Number of irreps     = 2
	Number of MOs        = 138
	Number of active MOs = 136
	AO-Basis             = NONE
	Semicanonical        = false
	Reference            = UHF
	Print Level          = 1

	IRREP	# MOs	# FZDC	# DOCC	# SOCC	# VIRT	# FZVR
	-----	-----	------	------	------	------	------
	 Ap	   92	    2	    5	    1	    84	    0
	 App	   46	    0	    1	    1	    44	    0
	Transforming integrals...
	IWL integrals will be deleted.
	(OO|OO)...
	Presorting SO-basis two-electron integrals.
	Sorting File: SO Ints (nn|nn) nbuckets = 1
	Transforming the one-electron integrals and constructing Fock matrices
	Starting AA/AB first half-transformation.
	Sorting AA/AB half-transformed integrals.
	Starting BB first half-transformation.
	Sorting BB half-transformed integrals.
	First half integral transformation complete.
	Starting AA second half-transformation.
	Starting AB second half-transformation.
	Starting BB second half-transformation.
	Two-electron integral transformation complete.
	(OO|OV)...
	Starting AA second half-transformation.
	Starting AB second half-transformation.
	Starting BB second half-transformation.
	Two-electron integral transformation complete.
	(OO|VV)...
	Starting AA second half-transformation.
	Starting AB second half-transformation.
	Starting BB second half-transformation.
	Two-electron integral transformation complete.
	(OV|OO)...
	Starting AA/AB first half-transformation.
	Sorting AA/AB half-transformed integrals.
	Starting BB first half-transformation.
	Sorting BB half-transformed integrals.
	First half integral transformation complete.
	Starting AA second half-transformation.
	Starting AB second half-transformation.
	Starting BB second half-transformation.
	Two-electron integral transformation complete.
	(OV|OV)...
	Starting AA second half-transformation.
	Starting AB second half-transformation.
	Starting BB second half-transformation.
	Two-electron integral transformation complete.
	(OV|VV)...
	Starting AA second half-transformation.
	Starting AB second half-transformation.
	Starting BB second half-transformation.
	Two-electron integral transformation complete.
	(VV|OO)...
	Starting AA/AB first half-transformation.
	Sorting AA/AB half-transformed integrals.
	Starting BB first half-transformation.
	Sorting BB half-transformed integrals.
	First half integral transformation complete.
	Starting AA second half-transformation.
	Starting AB second half-transformation.
	Starting BB second half-transformation.
	Two-electron integral transformation complete.
	(VV|OV)...
	Starting AA second half-transformation.
	Starting AB second half-transformation.
	Starting BB second half-transformation.
	Two-electron integral transformation complete.
	(VV|VV)...
	Starting AA second half-transformation.
	Starting AB second half-transformation.
	Starting BB second half-transformation.
	Two-electron integral transformation complete.
	Frozen core energy     =   -126.36577502080570

	Size of irrep 0 of <AB|CD> integrals:     19.643 (MW) /    157.141 (MB)
	Size of irrep 1 of <AB|CD> integrals:     13.660 (MW) /    109.283 (MB)
	Total:                                    33.303 (MW) /    266.424 (MB)

	Size of irrep 0 of <ab|cd> integrals:     20.794 (MW) /    166.349 (MB)
	Size of irrep 1 of <ab|cd> integrals:     14.631 (MW) /    117.045 (MB)
	Total:                                    35.424 (MW) /    283.394 (MB)

	Size of irrep 0 of <Ab|Cd> integrals:     83.174 (MW) /    665.395 (MB)
	Size of irrep 1 of <Ab|Cd> integrals:     56.550 (MW) /    452.403 (MB)
	Total:                                   139.725 (MW) /   1117.798 (MB)

	Size of irrep 0 of <IA|BC> integrals:      5.323 (MW) /     42.586 (MB)
	Size of irrep 1 of <IA|BC> integrals:      3.193 (MW) /     25.547 (MB)
	Total:                                     8.517 (MW) /     68.133 (MB)

	Size of irrep 0 of <ia|bc> integrals:      4.348 (MW) /     34.780 (MB)
	Size of irrep 1 of <ia|bc> integrals:      2.372 (MW) /     18.972 (MB)
	Total:                                     6.719 (MW) /     53.752 (MB)

	Size of irrep 0 of <Ia|Bc> integrals:      5.472 (MW) /     43.776 (MB)
	Size of irrep 1 of <Ia|Bc> integrals:      3.309 (MW) /     26.470 (MB)
	Total:                                     8.781 (MW) /     70.246 (MB)

	Size of irrep 0 of <iA|bC> integrals:      4.232 (MW) /     33.853 (MB)
	Size of irrep 1 of <iA|bC> integrals:      2.286 (MW) /     18.289 (MB)
	Total:                                     6.518 (MW) /     52.142 (MB)

	Size of irrep 0 of tIjAb amplitudes:       0.292 (MW) /      2.335 (MB)
	Size of irrep 1 of tIjAb amplitudes:       0.120 (MW) /      0.963 (MB)
	Total:                                     0.412 (MW) /      3.297 (MB)

	Nuclear Rep. energy          =     23.81386803221767
	SCF energy                   =   -150.87352101511476
	One-electron energy          =    -85.39388875379373
	Two-electron (AA) energy     =     10.36146531493556
	Two-electron (BB) energy     =      5.46567513553353
	Two-electron (AB) energy     =     21.24513427679641
	Two-electron energy          =     37.07227472726551
	Reference energy             =   -150.87352101511627

*** tstop() called on d3-3.compute.lan at Wed Mar 10 10:56:46 2021
Module time:
	user time   =     222.22 seconds =       3.70 minutes
	system time =      18.14 seconds =       0.30 minutes
	total time  =         39 seconds =       0.65 minutes
Total time:
	user time   =     269.95 seconds =       4.50 minutes
	system time =      20.71 seconds =       0.35 minutes
	total time  =         48 seconds =       0.80 minutes
            **************************
            *                        *
            *        CCENERGY        *
            *                        *
            **************************

    Nuclear Rep. energy (wfn)     =   23.813868032217670
    SCF energy          (wfn)     = -150.873521015114761
    Reference energy    (file100) = -150.873521015116268

    Input parameters:
    -----------------
    Wave function   =     CCSD_T
    Reference wfn   =     UHF
    Brueckner       =     No
    Memory (Mbytes) =     4000.0
    Maxiter         =     50
    R_Convergence   =     1.0e-10
    E_Convergence   =     1.0e-10
    Restart         =     Yes
    DIIS            =     Yes
    AO Basis        =     NONE
    ABCD            =     NEW
    Cache Level     =     2
    Cache Type      =     LRU
    Print Level     =     1
    Num. of threads =     12
    # Amps to Print =     10
    Print MP2 Amps? =     No
    Analyze T2 Amps =     No
    Print Pair Ener =     No
    Local CC        =     No
    SCS-MP2         =     False
    SCSN-MP2        =     False
    SCS-CCSD        =     False

MP2 correlation energy -0.4162743448730196
                Solving CC Amplitude Equations
                ------------------------------
  Iter             Energy              RMS        T1Diag      D1Diag    New D1Diag    D2Diag
  ----     ---------------------    ---------   ----------  ----------  ----------   --------
     0        -0.416274344873020    0.000e+00    0.000000    0.000000    0.000000    0.000000
     1        -0.427054378748293    5.698e-02    0.010579    0.000000    0.000000    0.000000
     2        -0.435151534227715    1.703e-02    0.011073    0.000000    0.000000    0.000000
     3        -0.437303045964896    8.772e-03    0.012994    0.000000    0.000000    0.000000
     4        -0.437176629763708    2.680e-03    0.013403    0.000000    0.000000    0.000000
     5        -0.437167139679484    1.394e-03    0.013595    0.000000    0.000000    0.000000
     6        -0.437196203389192    5.294e-04    0.013621    0.000000    0.000000    0.000000
     7        -0.437199177227998    2.145e-04    0.013615    0.000000    0.000000    0.000000
     8        -0.437200117255494    6.677e-05    0.013611    0.000000    0.000000    0.000000
     9        -0.437200802558678    2.385e-05    0.013610    0.000000    0.000000    0.000000
    10        -0.437199903436991    9.219e-06    0.013610    0.000000    0.000000    0.000000
    11        -0.437200068995421    4.001e-06    0.013610    0.000000    0.000000    0.000000
    12        -0.437200029303196    1.450e-06    0.013610    0.000000    0.000000    0.000000
    13        -0.437200037222556    7.409e-07    0.013610    0.000000    0.000000    0.000000
    14        -0.437200059792708    3.293e-07    0.013610    0.000000    0.000000    0.000000
    15        -0.437200061496382    1.664e-07    0.013610    0.000000    0.000000    0.000000
    16        -0.437200062083424    1.324e-07    0.013610    0.000000    0.000000    0.000000
    17        -0.437200062775787    1.228e-07    0.013610    0.000000    0.000000    0.000000
    18        -0.437200062511789    1.204e-07    0.013610    0.000000    0.000000    0.000000
    19        -0.437200061556495    1.175e-07    0.013610    0.000000    0.000000    0.000000
    20        -0.437200061551870    1.125e-07    0.013610    0.000000    0.000000    0.000000
    21        -0.437200060853809    9.558e-08    0.013610    0.000000    0.000000    0.000000
    22        -0.437200061623311    5.979e-08    0.013610    0.000000    0.000000    0.000000
    23        -0.437200062129788    2.999e-08    0.013610    0.000000    0.000000    0.000000
    24        -0.437200062246091    1.293e-08    0.013610    0.000000    0.000000    0.000000
    25        -0.437200062214709    5.497e-09    0.013610    0.000000    0.000000    0.000000
    26        -0.437200062219854    2.080e-09    0.013610    0.000000    0.000000    0.000000
    27        -0.437200062224683    9.150e-10    0.013610    0.000000    0.000000    0.000000
    28        -0.437200062234938    4.553e-10    0.013610    0.000000    0.000000    0.000000
    29        -0.437200062238445    1.874e-10    0.013610    0.000000    0.000000    0.000000
    30        -0.437200062240316    8.276e-11    0.013610    0.000000    0.000000    0.000000

    Iterations converged.

    Largest TIA Amplitudes:
              7  84        -0.0133342751

      * MP2 total energy                      = -151.289795359989284
      * CCSD total energy                     = -151.310721077356590
      * CCSD(T) total energy                     = -151.323014050680371
*** Psi4 exiting successfully. Buy a developer a beer!
