                               Psi4 1.3.2 release

  ==> Input File <==

--------------------------------------------------------------------------
memory 4 GB

molecule  {
0 1
O    0.000000000000    0.000000000000   -0.066128900336
H    0.000000000000   -0.760547860832    0.524756818364
H   -0.000000000000    0.760547860832    0.524756818364
}
set {
basis aug-cc-pvtz
reference uhf
e_convergence 10
scf_type pk
freeze_core true
}

set ccenergy {
e_convergence 10
r_convergence 10
}

e = energy('ccsd(t)')

print_out('Stephenergy {}'.format(e))

--------------------------------------------------------------------------

    Molecular point group: c2v

    Geometry (in Angstrom), charge = 0, multiplicity = 1:

       Center              X                  Y                   Z               Mass
    ------------   -----------------  -----------------  -----------------  -----------------
         O            0.000000000000     0.000000000000    -0.066128900336    15.994914619570
         H            0.000000000000    -0.760547860832     0.524756818364     1.007825032230
         H           -0.000000000000     0.760547860832     0.524756818364     1.007825032230

  Charge       = 0
  Multiplicity = 1
  Basis Set: AUG-CC-PVTZ
    Blend: AUG-CC-PVTZ

    Orbital Energies [Eh]
    ---------------------

    Alpha Occupied:

       1A1   -20.568318     2A1    -1.350729     1B2    -0.714243
       3A1    -0.584218     1B1    -0.509939

    Alpha Virtual:

       4A1     0.029357     2B2     0.047674     5A1     0.135910
       2B1     0.158838     6A1     0.175059     3B2     0.183037
       4B2     0.227023     7A1     0.244810     1A2     0.265303
       3B1     0.300126     8A1     0.310194     5B2     0.365681
       9A1     0.436957     6B2     0.465699     7B2     0.599205
      10A1     0.658074    11A1     0.708030     2A2     0.722512
       4B1     0.731736    12A1     0.829738     5B1     0.845953
      13A1     0.892441     8B2     0.912086     6B1     0.918737
       3A2     0.922052     9B2     0.930422    14A1     0.961608
      15A1     1.020127    10B2     1.042502     7B1     1.082331
      11B2     1.108174     4A2     1.175511    16A1     1.180894
      12B2     1.261618     5A2     1.509516    17A1     1.536767
       8B1     1.582002    18A1     1.805865    13B2     1.816990
      14B2     1.982208    19A1     2.115132     9B1     2.262209
       6A2     2.315223    20A1     2.326853    21A1     2.417691
      10B1     2.419805    15B2     2.442899    22A1     2.479158
      16B2     2.678986    11B1     2.698635    23A1     2.768213
      17B2     2.816750     7A2     2.882764    18B2     3.648520
      24A1     3.739707     8A2     4.015035    12B1     4.080588
      25A1     4.164833    19B2     4.242889    13B1     4.288368
      26A1     4.375805     9A2     4.376190    14B1     4.402420
      20B2     4.514196    27A1     4.720871    21B2     4.835428
      22B2     5.141552    10A2     5.143084    23B2     5.248053
      28A1     5.314597    15B1     5.513784    29A1     5.660858
      30A1     6.171999    24B2     6.514363    16B1     6.708179
      31A1     6.890904    17B1     7.129543    18B1     7.249027
      25B2     7.297483    11A2     7.306482    32A1     7.325981
      12A2     7.354012    33A1     7.525005    34A1     7.895619
      26B2     7.913569    27B2     8.787646    35A1    15.651387

    Beta Occupied:

       1A1   -20.568318     2A1    -1.350729     1B2    -0.714243
       3A1    -0.584218     1B1    -0.509939

    Beta Virtual:

       4A1     0.029357     2B2     0.047674     5A1     0.135910
       2B1     0.158838     6A1     0.175059     3B2     0.183037
       4B2     0.227023     7A1     0.244810     1A2     0.265303
       3B1     0.300126     8A1     0.310194     5B2     0.365681
       9A1     0.436957     6B2     0.465699     7B2     0.599205
      10A1     0.658074    11A1     0.708030     2A2     0.722512
       4B1     0.731736    12A1     0.829738     5B1     0.845953
      13A1     0.892441     8B2     0.912086     6B1     0.918737
       3A2     0.922052     9B2     0.930422    14A1     0.961608
      15A1     1.020127    10B2     1.042502     7B1     1.082331
      11B2     1.108174     4A2     1.175511    16A1     1.180894
      12B2     1.261618     5A2     1.509516    17A1     1.536767
       8B1     1.582002    18A1     1.805865    13B2     1.816990
      14B2     1.982208    19A1     2.115132     9B1     2.262209
       6A2     2.315223    20A1     2.326853    21A1     2.417691
      10B1     2.419805    15B2     2.442899    22A1     2.479158
      16B2     2.678986    11B1     2.698635    23A1     2.768213
      17B2     2.816750     7A2     2.882764    18B2     3.648520
      24A1     3.739707     8A2     4.015035    12B1     4.080588
      25A1     4.164833    19B2     4.242889    13B1     4.288368
      26A1     4.375805     9A2     4.376190    14B1     4.402420
      20B2     4.514196    27A1     4.720871    21B2     4.835428
      22B2     5.141552    10A2     5.143084    23B2     5.248053
      28A1     5.314597    15B1     5.513784    29A1     5.660858
      30A1     6.171999    24B2     6.514363    16B1     6.708179
      31A1     6.890904    17B1     7.129543    18B1     7.249027
      25B2     7.297483    11A2     7.306482    32A1     7.325981
      12A2     7.354012    33A1     7.525005    34A1     7.895619
      26B2     7.913569    27B2     8.787646    35A1    15.651387

    Final Occupation by Irrep:
             A1    A2    B1    B2
    DOCC [     3,    0,    1,    1 ]
    SOCC [     0,    0,    0,    0 ]

  @UHF Final Energy:   -76.06015074670530

   => Energetics <=

    Nuclear Repulsion Energy =              9.1390416229807698
    One-Electron Energy =                -122.9434925280260131
    Two-Electron Energy =                  37.7443001583399393
    Total Energy =                        -76.0601507467053040

  UHF NO Occupations:
  HONO-2 :    3 A1 2.0000000
  HONO-1 :    1 B1 2.0000000
  HONO-0 :    1 B2 2.0000000
  LUNO+0 :    4 A1 0.0000000
  LUNO+1 :    5 A1 0.0000000
  LUNO+2 :    6 A1 0.0000000
  LUNO+3 :    2 B1 0.0000000

Computation Completed

Properties will be evaluated at   0.000000,   0.000000,   0.000000 [a0]

Properties computed using the SCF density matrix

  Nuclear Dipole Moment: [e a0]
     X:     0.0000      Y:     0.0000      Z:     0.9836

  Electronic Dipole Moment: [e a0]
     X:     0.0000      Y:     0.0000      Z:    -0.2004

  Dipole Moment: [e a0]
     X:     0.0000      Y:     0.0000      Z:     0.7832     Total:     0.7832

  Dipole Moment: [D]
     X:     0.0000      Y:     0.0000      Z:     1.9907     Total:     1.9907

*** tstop() called on c5-18.compute.lan at Mon Mar  8 09:44:20 2021
Module time:
	user time   =      17.08 seconds =       0.28 minutes
	system time =       0.44 seconds =       0.01 minutes
	total time  =          2 seconds =       0.03 minutes
Total time:
	user time   =      17.08 seconds =       0.28 minutes
	system time =       0.44 seconds =       0.01 minutes
	total time  =          2 seconds =       0.03 minutes
 MINTS: Wrapper to libmints.
   by Justin Turney

   Calculation information:
      Number of threads:                12
      Number of atoms:                   3
      Number of AO shells:              32
      Number of SO shells:              23
      Number of primitives:             52
      Number of atomic orbitals:       105
      Number of basis functions:        92

      Number of irreps:                  4
      Integral cutoff                 0.00e+00
      Number of functions per irrep: [  35   12   18   27 ]

 OEINTS: Overlap, kinetic, potential, dipole, and quadrupole integrals
         stored in file 35.

      Computing two-electron integrals...done
      Computed 2239646 non-zero two-electron integrals.
        Stored in file 33.

*** tstart() called on c5-18.compute.lan
*** at Mon Mar  8 09:44:21 2021

	Wfn Parameters:
	--------------------
	Wavefunction         = CCSD_T
	Number of irreps     = 4
	Number of MOs        = 92
	Number of active MOs = 91
	AO-Basis             = NONE
	Semicanonical        = false
	Reference            = UHF
	Print Level          = 1

	IRREP	# MOs	# FZDC	# DOCC	# SOCC	# VIRT	# FZVR
	-----	-----	------	------	------	------	------
	 A1	   35	    1	    2	    0	    32	    0
	 A2	   12	    0	    0	    0	    12	    0
	 B1	   18	    0	    1	    0	    17	    0
	 B2	   27	    0	    1	    0	    26	    0
	Transforming integrals...
	IWL integrals will be deleted.
	(OO|OO)...
	Presorting SO-basis two-electron integrals.
	Sorting File: SO Ints (nn|nn) nbuckets = 1
	Transforming the one-electron integrals and constructing Fock matrices
	Starting AA/AB first half-transformation.
	Sorting AA/AB half-transformed integrals.
	Starting BB first half-transformation.
	Sorting BB half-transformed integrals.
	First half integral transformation complete.
	Starting AA second half-transformation.
	Starting AB second half-transformation.
	Starting BB second half-transformation.
	Two-electron integral transformation complete.
	(OO|OV)...
	Starting AA second half-transformation.
	Starting AB second half-transformation.
	Starting BB second half-transformation.
	Two-electron integral transformation complete.
	(OO|VV)...
	Starting AA second half-transformation.
	Starting AB second half-transformation.
	Starting BB second half-transformation.
	Two-electron integral transformation complete.
	(OV|OO)...
	Starting AA/AB first half-transformation.
	Sorting AA/AB half-transformed integrals.
	Starting BB first half-transformation.
	Sorting BB half-transformed integrals.
	First half integral transformation complete.
	Starting AA second half-transformation.
	Starting AB second half-transformation.
	Starting BB second half-transformation.
	Two-electron integral transformation complete.
	(OV|OV)...
	Starting AA second half-transformation.
	Starting AB second half-transformation.
	Starting BB second half-transformation.
	Two-electron integral transformation complete.
	(OV|VV)...
	Starting AA second half-transformation.
	Starting AB second half-transformation.
	Starting BB second half-transformation.
	Two-electron integral transformation complete.
	(VV|OO)...
	Starting AA/AB first half-transformation.
	Sorting AA/AB half-transformed integrals.
	Starting BB first half-transformation.
	Sorting BB half-transformed integrals.
	First half integral transformation complete.
	Starting AA second half-transformation.
	Starting AB second half-transformation.
	Starting BB second half-transformation.
	Two-electron integral transformation complete.
	(VV|OV)...
	Starting AA second half-transformation.
	Starting AB second half-transformation.
	Starting BB second half-transformation.
	Two-electron integral transformation complete.
	(VV|VV)...
	Starting AA second half-transformation.
	Starting AB second half-transformation.
	Starting BB second half-transformation.
	Two-electron integral transformation complete.
	Frozen core energy     =    -61.30324949044315

	Size of irrep 0 of <AB|CD> integrals:      1.047 (MW) /      8.372 (MB)
	Size of irrep 1 of <AB|CD> integrals:      0.682 (MW) /      5.458 (MB)
	Size of irrep 2 of <AB|CD> integrals:      0.733 (MW) /      5.862 (MB)
	Size of irrep 3 of <AB|CD> integrals:      1.073 (MW) /      8.586 (MB)
	Total:                                     3.535 (MW) /     28.279 (MB)

	Size of irrep 0 of <ab|cd> integrals:      1.047 (MW) /      8.372 (MB)
	Size of irrep 1 of <ab|cd> integrals:      0.682 (MW) /      5.458 (MB)
	Size of irrep 2 of <ab|cd> integrals:      0.733 (MW) /      5.862 (MB)
	Size of irrep 3 of <ab|cd> integrals:      1.073 (MW) /      8.586 (MB)
	Total:                                     3.535 (MW) /     28.279 (MB)

	Size of irrep 0 of <Ab|Cd> integrals:      4.550 (MW) /     36.398 (MB)
	Size of irrep 1 of <Ab|Cd> integrals:      2.729 (MW) /     21.833 (MB)
	Size of irrep 2 of <Ab|Cd> integrals:      2.931 (MW) /     23.448 (MB)
	Size of irrep 3 of <Ab|Cd> integrals:      4.293 (MW) /     34.345 (MB)
	Total:                                    14.503 (MW) /    116.023 (MB)

	Size of irrep 0 of <IA|BC> integrals:      0.228 (MW) /      1.826 (MB)
	Size of irrep 1 of <IA|BC> integrals:      0.111 (MW) /      0.885 (MB)
	Size of irrep 2 of <IA|BC> integrals:      0.134 (MW) /      1.068 (MB)
	Size of irrep 3 of <IA|BC> integrals:      0.199 (MW) /      1.591 (MB)
	Total:                                     0.671 (MW) /      5.371 (MB)

	Size of irrep 0 of <ia|bc> integrals:      0.228 (MW) /      1.826 (MB)
	Size of irrep 1 of <ia|bc> integrals:      0.111 (MW) /      0.885 (MB)
	Size of irrep 2 of <ia|bc> integrals:      0.134 (MW) /      1.068 (MB)
	Size of irrep 3 of <ia|bc> integrals:      0.199 (MW) /      1.591 (MB)
	Total:                                     0.671 (MW) /      5.371 (MB)

	Size of irrep 0 of <Ia|Bc> integrals:      0.228 (MW) /      1.826 (MB)
	Size of irrep 1 of <Ia|Bc> integrals:      0.111 (MW) /      0.885 (MB)
	Size of irrep 2 of <Ia|Bc> integrals:      0.134 (MW) /      1.068 (MB)
	Size of irrep 3 of <Ia|Bc> integrals:      0.199 (MW) /      1.591 (MB)
	Total:                                     0.671 (MW) /      5.371 (MB)

	Size of irrep 0 of <iA|bC> integrals:      0.228 (MW) /      1.826 (MB)
	Size of irrep 1 of <iA|bC> integrals:      0.111 (MW) /      0.885 (MB)
	Size of irrep 2 of <iA|bC> integrals:      0.134 (MW) /      1.068 (MB)
	Size of irrep 3 of <iA|bC> integrals:      0.199 (MW) /      1.591 (MB)
	Total:                                     0.671 (MW) /      5.371 (MB)

	Size of irrep 0 of tIjAb amplitudes:       0.013 (MW) /      0.102 (MB)
	Size of irrep 1 of tIjAb amplitudes:       0.003 (MW) /      0.026 (MB)
	Size of irrep 2 of tIjAb amplitudes:       0.007 (MW) /      0.055 (MB)
	Size of irrep 3 of tIjAb amplitudes:       0.008 (MW) /      0.066 (MB)
	Total:                                     0.031 (MW) /      0.250 (MB)

	Nuclear Rep. energy          =      9.13904162298077
	SCF energy                   =    -76.06015074670530
	One-electron energy          =    -41.47362952054454
	Two-electron (AA) energy     =      3.41685977732425
	Two-electron (BB) energy     =      3.41685977732427
	Two-electron (AB) energy     =     10.74396708665287
	Two-electron energy          =     17.57768664130139
	Reference energy             =    -76.06015074670553

*** tstop() called on c5-18.compute.lan at Mon Mar  8 09:44:28 2021
Module time:
	user time   =       2.81 seconds =       0.05 minutes
	system time =       3.19 seconds =       0.05 minutes
	total time  =          7 seconds =       0.12 minutes
Total time:
	user time   =      23.59 seconds =       0.39 minutes
	system time =       3.78 seconds =       0.06 minutes
	total time  =         10 seconds =       0.17 minutes
            **************************
            *                        *
            *        CCENERGY        *
            *                        *
            **************************

    Nuclear Rep. energy (wfn)     =    9.139041622980770
    SCF energy          (wfn)     =  -76.060150746705304
    Reference energy    (file100) =  -76.060150746705531

    Input parameters:
    -----------------
    Wave function   =     CCSD_T
    Reference wfn   =     UHF
    Brueckner       =     No
    Memory (Mbytes) =     4000.0
    Maxiter         =     50
    R_Convergence   =     1.0e-10
    E_Convergence   =     1.0e-10
    Restart         =     Yes
    DIIS            =     Yes
    AO Basis        =     NONE
    ABCD            =     NEW
    Cache Level     =     2
    Cache Type      =     LRU
    Print Level     =     1
    Num. of threads =     12
    # Amps to Print =     10
    Print MP2 Amps? =     No
    Analyze T2 Amps =     No
    Print Pair Ener =     No
    Local CC        =     No
    SCS-MP2         =     False
    SCSN-MP2        =     False
    SCS-CCSD        =     False

MP2 correlation energy -0.2688341928761425
                Solving CC Amplitude Equations
                ------------------------------
  Iter             Energy              RMS        T1Diag      D1Diag    New D1Diag    D2Diag
  ----     ---------------------    ---------   ----------  ----------  ----------   --------
     0        -0.268834192876143    0.000e+00    0.000000    0.000000    0.000000    0.000000
     1        -0.267286934791208    4.782e-02    0.012135    0.000000    0.000000    0.000000
     2        -0.272380493745857    1.319e-02    0.011908    0.000000    0.000000    0.000000
     3        -0.273606196326102    6.201e-03    0.013770    0.000000    0.000000    0.000000
     4        -0.273501316054478    1.249e-03    0.014094    0.000000    0.000000    0.000000
     5        -0.273485014706011    4.606e-04    0.014227    0.000000    0.000000    0.000000
     6        -0.273485906950440    1.149e-04    0.014257    0.000000    0.000000    0.000000
     7        -0.273484681121742    3.899e-05    0.014263    0.000000    0.000000    0.000000
     8        -0.273484725292281    1.070e-05    0.014265    0.000000    0.000000    0.000000
     9        -0.273484773270582    3.309e-06    0.014266    0.000000    0.000000    0.000000
    10        -0.273484651440842    1.342e-06    0.014266    0.000000    0.000000    0.000000
    11        -0.273484669936336    4.635e-07    0.014266    0.000000    0.000000    0.000000
    12        -0.273484664879393    1.721e-07    0.014266    0.000000    0.000000    0.000000
    13        -0.273484666699749    5.054e-08    0.014265    0.000000    0.000000    0.000000
    14        -0.273484667914501    1.337e-08    0.014265    0.000000    0.000000    0.000000
    15        -0.273484667965777    4.094e-09    0.014265    0.000000    0.000000    0.000000
    16        -0.273484667968283    1.248e-09    0.014265    0.000000    0.000000    0.000000
    17        -0.273484667977248    4.294e-10    0.014265    0.000000    0.000000    0.000000
    18        -0.273484667974210    1.110e-10    0.014265    0.000000    0.000000    0.000000
    19        -0.273484667973843    3.354e-11    0.014265    0.000000    0.000000    0.000000

    Iterations converged.

    Largest TIA Amplitudes:
              2  44        -0.0151791965
              2  45        -0.0130684531
              1   1         0.0085389709
              1   4        -0.0078255344
              3  73         0.0054636177
              2  54         0.0042815390
              3  69         0.0038179173
              2  47        -0.0036794671
              3  80         0.0036083333
              1  23         0.0034046492

    Largest Tia Amplitudes:
              2  44        -0.0151791965
              2  45        -0.0130684531
              1   1         0.0085389709
              1   4        -0.0078255344
              3  73         0.0054636177
              2  54         0.0042815390
              3  69         0.0038179173
              2  47        -0.0036794671
              3  80         0.0036083333
              1  23         0.0034046492

    Largest TIJAB Amplitudes:
      2   1  46   7        -0.0095589641
      3   1  66   6        -0.0093637419

      * MP2 total energy                      =  -76.328984939581673
      * CCSD total energy                     =  -76.333635414679378
      * CCSD(T) total energy                     =  -76.342320567503094
*** Psi4 exiting successfully. Buy a developer a beer!
