                               Psi4 1.3.2 release

  ==> Input File <==

--------------------------------------------------------------------------
memory 4 GB

molecule  {
0 3
O   -1.496507563314   -0.004634741093    0.000000000000
H   -0.544190660261    0.141857331317    0.000000000000
H   -1.876603198836    0.876050832924    0.000000000000
O    1.649039584090   -0.059502727148    0.000000000000
}
set {
basis aug-cc-pvtz
reference uhf
e_convergence 10
scf_type pk
freeze_core true
}

set ccenergy {
e_convergence 10
r_convergence 10
}

e = energy('ccsd(t)')

print_out('Stephenergy {}'.format(e))

--------------------------------------------------------------------------

    Molecular point group: cs

    Geometry (in Angstrom), charge = 0, multiplicity = 3:

       Center              X                  Y                   Z               Mass
    ------------   -----------------  -----------------  -----------------  -----------------
         O           -1.496507563314    -0.004634741093     0.000000000000    15.994914619570
         H           -0.544190660261     0.141857331317     0.000000000000     1.007825032230
         H           -1.876603198836     0.876050832924     0.000000000000     1.007825032230
         O            1.649039584090    -0.059502727148     0.000000000000    15.994914619570

  Charge       = 0
  Multiplicity = 3
  Basis Set: AUG-CC-PVTZ
    Blend: AUG-CC-PVTZ

    Orbital Energies [Eh]
    ---------------------

    Alpha Occupied:

       1Ap   -20.733682     2Ap   -20.558208     3Ap    -1.443082
       4Ap    -1.342955     5Ap    -0.733800     1App   -0.733419
       6Ap    -0.710806     7Ap    -0.635077     8Ap    -0.574505
       2App   -0.501630

    Alpha Virtual:

       9Ap     0.034305    10Ap     0.053441    11Ap     0.127985
       3App    0.132703    12Ap     0.148159    13Ap     0.160889
      14Ap     0.183952     4App    0.186989    15Ap     0.214430
      16Ap     0.242287    17Ap     0.265385     5App    0.286335
      18Ap     0.303481     6App    0.321396    19Ap     0.365699
      20Ap     0.406068    21Ap     0.461264    22Ap     0.568122
       7App    0.602085    23Ap     0.608514    24Ap     0.628899
      25Ap     0.679606     8App    0.712048    26Ap     0.714917
       9App    0.736621    10App    0.748541    27Ap     0.753776
      28Ap     0.813421    11App    0.825959    29Ap     0.836812
      12App    0.890807    30Ap     0.891317    31Ap     0.924176
      32Ap     0.946484    13App    0.947718    33Ap     0.951910
      14App    0.973952    34Ap     0.979697    35Ap     1.044662
      36Ap     1.133572    15App    1.157227    37Ap     1.170598
      38Ap     1.189262    39Ap     1.264183    16App    1.297015
      40Ap     1.320654    17App    1.528526    41Ap     1.586321
      18App    1.599768    42Ap     1.716764    43Ap     1.812151
      44Ap     1.844664    45Ap     1.977162    19App    1.977202
      46Ap     1.979730    20App    2.013044    47Ap     2.017920
      21App    2.050362    48Ap     2.063848    22App    2.125537
      49Ap     2.156639    50Ap     2.178540    23App    2.216826
      24App    2.303692    51Ap     2.311197    52Ap     2.342616
      53Ap     2.416819    25App    2.445511    54Ap     2.461096
      55Ap     2.498580    26App    2.531011    56Ap     2.638474
      57Ap     2.712594    27App    2.728690    58Ap     2.739400
      59Ap     2.863357    60Ap     2.932768    28App    2.945145
      61Ap     3.700807    62Ap     3.898990    29App    4.037241
      30App    4.063022    63Ap     4.074915    31App    4.180820
      64Ap     4.211042    65Ap     4.267870    32App    4.303964
      33App    4.392163    66Ap     4.408056    34App    4.431853
      67Ap     4.443401    68Ap     4.602039    69Ap     4.781376
      70Ap     4.963752    35App    5.158076    71Ap     5.172141
      72Ap     5.302451    73Ap     5.392764    36App    5.527768
      74Ap     5.694177    75Ap     6.189580    37App    6.311759
      76Ap     6.311790    38App    6.376113    77Ap     6.378954
      39App    6.523776    78Ap     6.523996    79Ap     6.562053
      80Ap     6.642611    40App    6.735850    81Ap     6.814014
      41App    6.819818    82Ap     6.922659    42App    6.937225
      83Ap     6.963200    84Ap     7.051725    43App    7.150282
      44App    7.273658    45App    7.327894    85Ap     7.329601
      86Ap     7.363837    46App    7.439068    87Ap     7.653661
      88Ap     7.947759    89Ap     7.966104    90Ap     8.813677
      91Ap     9.547087    92Ap    16.363706

    Beta Occupied:

       1Ap   -20.654894     2Ap   -20.558346     3Ap    -1.343570
       4Ap    -1.100629     5Ap    -0.709896     6Ap    -0.580047
       7Ap    -0.541441     1App   -0.501676

    Beta Virtual:

       8Ap     0.034411     2App    0.048950     9Ap     0.049133
      10Ap     0.055230    11Ap     0.144068    12Ap     0.152642
       3App    0.161142    13Ap     0.178282    14Ap     0.207920
      15Ap     0.225161     4App    0.226931    16Ap     0.251166
      17Ap     0.266626     5App    0.286554    18Ap     0.305647
       6App    0.325397    19Ap     0.369658    20Ap     0.417312
      21Ap     0.462506    22Ap     0.571750    23Ap     0.629306
       7App    0.634443    24Ap     0.640612    25Ap     0.684241
      26Ap     0.715539     8App    0.723905     9App    0.739967
      10App    0.750317    27Ap     0.771161    28Ap     0.819744
      29Ap     0.865958    11App    0.869315    30Ap     0.921008
      12App    0.942634    31Ap     0.943091    13App    0.949869
      32Ap     0.953238    33Ap     0.970609    34Ap     1.018930
      14App    1.020995    35Ap     1.047226    15App    1.160512
      36Ap     1.164328    37Ap     1.174832    38Ap     1.215797
      39Ap     1.267152    16App    1.307629    40Ap     1.329691
      17App    1.529280    41Ap     1.588830    18App    1.601269
      42Ap     1.742035    43Ap     1.818213    44Ap     1.856132
      45Ap     1.987762    46Ap     2.015174    19App    2.015179
      20App    2.055500    47Ap     2.068272    21App    2.174708
      48Ap     2.176574    22App    2.179647    49Ap     2.197082
      50Ap     2.247830    23App    2.252907    24App    2.307115
      51Ap     2.316900    52Ap     2.364163    53Ap     2.421041
      25App    2.448132    54Ap     2.461825    55Ap     2.504989
      26App    2.539506    56Ap     2.645662    57Ap     2.726580
      27App    2.730104    58Ap     2.746961    59Ap     2.865210
      60Ap     2.936885    28App    2.945772    61Ap     3.701511
      62Ap     3.901569    29App    4.039670    30App    4.148990
      63Ap     4.194439    64Ap     4.243719    31App    4.263645
      65Ap     4.281022    32App    4.304017    33App    4.392237
      66Ap     4.412631    34App    4.432564    67Ap     4.487297
      68Ap     4.604177    69Ap     4.782916    70Ap     4.965821
      35App    5.158068    71Ap     5.172531    72Ap     5.302709
      73Ap     5.394021    36App    5.527846    74Ap     5.694563
      75Ap     6.190828    76Ap     6.420616    37App    6.420620
      38App    6.451269    77Ap     6.454092    78Ap     6.536110
      39App    6.577558    79Ap     6.605869    80Ap     6.687219
      40App    6.741834    81Ap     6.924580    41App    7.004918
      82Ap     7.006546    42App    7.046388    83Ap     7.069768
      84Ap     7.131456    43App    7.152732    44App    7.273987
      45App    7.328567    85Ap     7.329878    86Ap     7.364535
      46App    7.439488    87Ap     7.654474    88Ap     7.948451
      89Ap     7.966673    90Ap     8.815410    91Ap     9.621945
      92Ap    16.364013

    Final Occupation by Irrep:
             Ap   App
    DOCC [     7,    1 ]
    SOCC [     1,    1 ]

  @UHF Final Energy:  -150.87446490440985

   => Energetics <=

    Nuclear Repulsion Energy =             23.0028448192631707
    One-Electron Energy =                -253.7969568184927596
    Two-Electron Energy =                  79.9196470948197373
    Total Energy =                       -150.8744649044098480

  UHF NO Occupations:
  HONO-2 :    7 Ap 1.9970271
  HONO-1 :    8 Ap 1.0000000
  HONO-0 :    2App 1.0000000
  LUNO+0 :    9 Ap 0.0029729
  LUNO+1 :   10 Ap 0.0017129
  LUNO+2 :   11 Ap 0.0000024
  LUNO+3 :   12 Ap 0.0000019

Computation Completed

Properties will be evaluated at   0.000000,   0.000000,   0.000000 [a0]

Properties computed using the SCF density matrix

  Nuclear Dipole Moment: [e a0]
     X:    -2.2687      Y:     0.9539      Z:     0.0000

  Electronic Dipole Moment: [e a0]
     X:     2.7429      Y:    -0.2840      Z:     0.0000

  Dipole Moment: [e a0]
     X:     0.4743      Y:     0.6700      Z:     0.0000     Total:     0.8208

  Dipole Moment: [D]
     X:     1.2054      Y:     1.7029      Z:     0.0000     Total:     2.0863

*** tstop() called on c4-16.compute.lan at Tue Mar  9 15:24:40 2021
Module time:
	user time   =      76.72 seconds =       1.28 minutes
	system time =       2.64 seconds =       0.04 minutes
	total time  =          9 seconds =       0.15 minutes
Total time:
	user time   =      76.72 seconds =       1.28 minutes
	system time =       2.64 seconds =       0.04 minutes
	total time  =          9 seconds =       0.15 minutes
 MINTS: Wrapper to libmints.
   by Justin Turney

   Calculation information:
      Number of threads:                12
      Number of atoms:                   4
      Number of AO shells:              46
      Number of SO shells:              46
      Number of primitives:             82
      Number of atomic orbitals:       160
      Number of basis functions:       138

      Number of irreps:                  2
      Integral cutoff                 0.00e+00
      Number of functions per irrep: [  92   46 ]

 OEINTS: Overlap, kinetic, potential, dipole, and quadrupole integrals
         stored in file 35.

      Computing two-electron integrals...done
      Computed 22936856 non-zero two-electron integrals.
        Stored in file 33.

*** tstart() called on c4-16.compute.lan
*** at Tue Mar  9 15:24:44 2021

	Wfn Parameters:
	--------------------
	Wavefunction         = CCSD_T
	Number of irreps     = 2
	Number of MOs        = 138
	Number of active MOs = 136
	AO-Basis             = NONE
	Semicanonical        = false
	Reference            = UHF
	Print Level          = 1

	IRREP	# MOs	# FZDC	# DOCC	# SOCC	# VIRT	# FZVR
	-----	-----	------	------	------	------	------
	 Ap	   92	    2	    5	    1	    84	    0
	 App	   46	    0	    1	    1	    44	    0
	Transforming integrals...
	IWL integrals will be deleted.
	(OO|OO)...
	Presorting SO-basis two-electron integrals.
	Sorting File: SO Ints (nn|nn) nbuckets = 1
	Transforming the one-electron integrals and constructing Fock matrices
	Starting AA/AB first half-transformation.
	Sorting AA/AB half-transformed integrals.
	Starting BB first half-transformation.
	Sorting BB half-transformed integrals.
	First half integral transformation complete.
	Starting AA second half-transformation.
	Starting AB second half-transformation.
	Starting BB second half-transformation.
	Two-electron integral transformation complete.
	(OO|OV)...
	Starting AA second half-transformation.
	Starting AB second half-transformation.
	Starting BB second half-transformation.
	Two-electron integral transformation complete.
	(OO|VV)...
	Starting AA second half-transformation.
	Starting AB second half-transformation.
	Starting BB second half-transformation.
	Two-electron integral transformation complete.
	(OV|OO)...
	Starting AA/AB first half-transformation.
	Sorting AA/AB half-transformed integrals.
	Starting BB first half-transformation.
	Sorting BB half-transformed integrals.
	First half integral transformation complete.
	Starting AA second half-transformation.
	Starting AB second half-transformation.
	Starting BB second half-transformation.
	Two-electron integral transformation complete.
	(OV|OV)...
	Starting AA second half-transformation.
	Starting AB second half-transformation.
	Starting BB second half-transformation.
	Two-electron integral transformation complete.
	(OV|VV)...
	Starting AA second half-transformation.
	Starting AB second half-transformation.
	Starting BB second half-transformation.
	Two-electron integral transformation complete.
	(VV|OO)...
	Starting AA/AB first half-transformation.
	Sorting AA/AB half-transformed integrals.
	Starting BB first half-transformation.
	Sorting BB half-transformed integrals.
	First half integral transformation complete.
	Starting AA second half-transformation.
	Starting AB second half-transformation.
	Starting BB second half-transformation.
	Two-electron integral transformation complete.
	(VV|OV)...
	Starting AA second half-transformation.
	Starting AB second half-transformation.
	Starting BB second half-transformation.
	Two-electron integral transformation complete.
	(VV|VV)...
	Starting AA second half-transformation.
	Starting AB second half-transformation.
	Starting BB second half-transformation.
	Two-electron integral transformation complete.
	Frozen core energy     =   -125.89316463922164

	Size of irrep 0 of <AB|CD> integrals:     19.643 (MW) /    157.141 (MB)
	Size of irrep 1 of <AB|CD> integrals:     13.660 (MW) /    109.283 (MB)
	Total:                                    33.303 (MW) /    266.424 (MB)

	Size of irrep 0 of <ab|cd> integrals:     20.794 (MW) /    166.349 (MB)
	Size of irrep 1 of <ab|cd> integrals:     14.631 (MW) /    117.045 (MB)
	Total:                                    35.424 (MW) /    283.394 (MB)

	Size of irrep 0 of <Ab|Cd> integrals:     83.174 (MW) /    665.395 (MB)
	Size of irrep 1 of <Ab|Cd> integrals:     56.550 (MW) /    452.403 (MB)
	Total:                                   139.725 (MW) /   1117.798 (MB)

	Size of irrep 0 of <IA|BC> integrals:      5.323 (MW) /     42.586 (MB)
	Size of irrep 1 of <IA|BC> integrals:      3.193 (MW) /     25.547 (MB)
	Total:                                     8.517 (MW) /     68.133 (MB)

	Size of irrep 0 of <ia|bc> integrals:      4.348 (MW) /     34.780 (MB)
	Size of irrep 1 of <ia|bc> integrals:      2.372 (MW) /     18.972 (MB)
	Total:                                     6.719 (MW) /     53.752 (MB)

	Size of irrep 0 of <Ia|Bc> integrals:      5.472 (MW) /     43.776 (MB)
	Size of irrep 1 of <Ia|Bc> integrals:      3.309 (MW) /     26.470 (MB)
	Total:                                     8.781 (MW) /     70.246 (MB)

	Size of irrep 0 of <iA|bC> integrals:      4.232 (MW) /     33.853 (MB)
	Size of irrep 1 of <iA|bC> integrals:      2.286 (MW) /     18.289 (MB)
	Total:                                     6.518 (MW) /     52.142 (MB)

	Size of irrep 0 of tIjAb amplitudes:       0.292 (MW) /      2.335 (MB)
	Size of irrep 1 of tIjAb amplitudes:       0.120 (MW) /      0.963 (MB)
	Total:                                     0.412 (MW) /      3.297 (MB)

	Nuclear Rep. energy          =     23.00284481926317
	SCF energy                   =   -150.87446490440985
	One-electron energy          =    -84.51575704122581
	Two-electron (AA) energy     =     10.15409709499145
	Two-electron (BB) energy     =      5.40196086472918
	Two-electron (AB) energy     =     20.97555399705281
	Two-electron energy          =     36.53161195677345
	Reference energy             =   -150.87446490441084

*** tstop() called on c4-16.compute.lan at Tue Mar  9 15:25:24 2021
Module time:
	user time   =     127.13 seconds =       2.12 minutes
	system time =      21.19 seconds =       0.35 minutes
	total time  =         40 seconds =       0.67 minutes
Total time:
	user time   =     210.44 seconds =       3.51 minutes
	system time =      24.53 seconds =       0.41 minutes
	total time  =         53 seconds =       0.88 minutes
            **************************
            *                        *
            *        CCENERGY        *
            *                        *
            **************************

    Nuclear Rep. energy (wfn)     =   23.002844819263171
    SCF energy          (wfn)     = -150.874464904409848
    Reference energy    (file100) = -150.874464904410843

    Input parameters:
    -----------------
    Wave function   =     CCSD_T
    Reference wfn   =     UHF
    Brueckner       =     No
    Memory (Mbytes) =     4000.0
    Maxiter         =     50
    R_Convergence   =     1.0e-10
    E_Convergence   =     1.0e-10
    Restart         =     Yes
    DIIS            =     Yes
    AO Basis        =     NONE
    ABCD            =     NEW
    Cache Level     =     2
    Cache Type      =     LRU
    Print Level     =     1
    Num. of threads =     12
    # Amps to Print =     10
    Print MP2 Amps? =     No
    Analyze T2 Amps =     No
    Print Pair Ener =     No
    Local CC        =     No
    SCS-MP2         =     False
    SCSN-MP2        =     False
    SCS-CCSD        =     False

MP2 correlation energy -0.4166101361881552
                Solving CC Amplitude Equations
                ------------------------------
  Iter             Energy              RMS        T1Diag      D1Diag    New D1Diag    D2Diag
  ----     ---------------------    ---------   ----------  ----------  ----------   --------
     0        -0.416610136188155    0.000e+00    0.000000    0.000000    0.000000    0.000000
     1        -0.427339017824046    5.686e-02    0.010554    0.000000    0.000000    0.000000
     2        -0.435421454817046    1.688e-02    0.011035    0.000000    0.000000    0.000000
     3        -0.437539966728511    8.578e-03    0.012908    0.000000    0.000000    0.000000
     4        -0.437414282861968    2.537e-03    0.013277    0.000000    0.000000    0.000000
     5        -0.437399424136301    1.328e-03    0.013435    0.000000    0.000000    0.000000
     6        -0.437426885374786    5.172e-04    0.013459    0.000000    0.000000    0.000000
     7        -0.437431596729150    2.699e-04    0.013454    0.000000    0.000000    0.000000
     8        -0.437432166102873    1.018e-04    0.013450    0.000000    0.000000    0.000000
     9        -0.437433561098599    7.573e-05    0.013451    0.000000    0.000000    0.000000
    10        -0.437431946981549    6.478e-05    0.013452    0.000000    0.000000    0.000000
    11        -0.437432106429435    6.156e-05    0.013454    0.000000    0.000000    0.000000
    12        -0.437431830596351    5.974e-05    0.013456    0.000000    0.000000    0.000000
    13        -0.437431831141676    5.862e-05    0.013459    0.000000    0.000000    0.000000
    14        -0.437433008278285    5.682e-05    0.013476    0.000000    0.000000    0.000000
    15        -0.437433395349266    5.036e-05    0.013548    0.000000    0.000000    0.000000
    16        -0.437433152280117    3.357e-05    0.013685    0.000000    0.000000    0.000000
    17        -0.437432799715285    1.615e-05    0.013752    0.000000    0.000000    0.000000
    18        -0.437432661244724    7.579e-06    0.013769    0.000000    0.000000    0.000000
    19        -0.437432916036475    3.367e-06    0.013774    0.000000    0.000000    0.000000
    20        -0.437433029040927    1.511e-06    0.013774    0.000000    0.000000    0.000000
    21        -0.437433037301670    6.064e-07    0.013774    0.000000    0.000000    0.000000
    22        -0.437433038862024    2.947e-07    0.013775    0.000000    0.000000    0.000000
    23        -0.437433037615853    1.547e-07    0.013775    0.000000    0.000000    0.000000
    24        -0.437433036734819    6.466e-08    0.013775    0.000000    0.000000    0.000000
    25        -0.437433037731044    3.541e-08    0.013775    0.000000    0.000000    0.000000
    26        -0.437433038213932    2.776e-08    0.013775    0.000000    0.000000    0.000000
    27        -0.437433038377721    2.613e-08    0.013775    0.000000    0.000000    0.000000
    28        -0.437433038320125    2.541e-08    0.013775    0.000000    0.000000    0.000000
    29        -0.437433038148692    2.479e-08    0.013775    0.000000    0.000000    0.000000
    30        -0.437433037862686    2.382e-08    0.013775    0.000000    0.000000    0.000000
    31        -0.437433038038926    2.079e-08    0.013775    0.000000    0.000000    0.000000
    32        -0.437433038416439    1.150e-08    0.013775    0.000000    0.000000    0.000000
    33        -0.437433038539267    5.109e-09    0.013775    0.000000    0.000000    0.000000
    34        -0.437433038605166    2.077e-09    0.013775    0.000000    0.000000    0.000000
    35        -0.437433038612455    7.665e-10    0.013775    0.000000    0.000000    0.000000
    36        -0.437433038613422    3.267e-10    0.013775    0.000000    0.000000    0.000000

      * MP2 total energy                      = -151.291075040598997
      * CCSD total energy                     = -151.311897943024576
      * CCSD(T) total energy                     = -151.324255533462519
*** Psi4 exiting successfully. Buy a developer a beer!
