                               Psi4 1.3.2 release

  ==> Input File <==

--------------------------------------------------------------------------
memory 4 GB

molecule  {
0 3
O   -1.522636442466   -0.028734999340    0.000000000000
H   -0.559902623793   -0.011805002489    0.000000000000
H   -1.778826174378    0.895625326142    0.000000000000
O    1.669997618343   -0.026953715940    0.000000000000
}
set {
basis aug-cc-pvtz
reference uhf
e_convergence 10
scf_type pk
freeze_core true
}

set ccenergy {
e_convergence 10
r_convergence 10
}

e = energy('ccsd(t)')

print_out('Stephenergy {}'.format(e))

--------------------------------------------------------------------------

    Molecular point group: cs

    Geometry (in Angstrom), charge = 0, multiplicity = 3:

       Center              X                  Y                   Z               Mass
    ------------   -----------------  -----------------  -----------------  -----------------
         O           -1.522636442466    -0.028734999340     0.000000000000    15.994914619570
         H           -0.559902623793    -0.011805002489     0.000000000000     1.007825032230
         H           -1.778826174378     0.895625326142     0.000000000000     1.007825032230
         O            1.669997618343    -0.026953715940     0.000000000000    15.994914619570

  Charge       = 0
  Multiplicity = 3
  Basis Set: AUG-CC-PVTZ
    Blend: AUG-CC-PVTZ

    Orbital Energies [Eh]
    ---------------------

    Alpha Occupied:

       1Ap   -20.734895     2Ap   -20.558259     3Ap    -1.444205
       4Ap    -1.343207     5Ap    -0.734746     1App   -0.734600
       6Ap    -0.710475     7Ap    -0.636923     8Ap    -0.574564
       2App   -0.501688

    Alpha Virtual:

       9Ap     0.034610    10Ap     0.053255    11Ap     0.127540
       3App    0.131509    12Ap     0.148083    13Ap     0.161252
      14Ap     0.183428     4App    0.186171    15Ap     0.211404
      16Ap     0.241611    17Ap     0.272052     5App    0.282482
      18Ap     0.293390     6App    0.323449    19Ap     0.372131
      20Ap     0.392639    21Ap     0.460527    22Ap     0.558879
       7App    0.600068    23Ap     0.608591    24Ap     0.644058
      25Ap     0.668533    26Ap     0.712372     8App    0.712476
       9App    0.734681    10App    0.747023    27Ap     0.765599
      28Ap     0.796985    11App    0.824792    29Ap     0.851774
      30Ap     0.865585    12App    0.883009    31Ap     0.922981
      13App    0.942253    32Ap     0.944188    33Ap     0.956717
      14App    0.983902    34Ap     0.986811    35Ap     1.044127
      36Ap     1.127885    37Ap     1.169158    15App    1.178148
      38Ap     1.193931    16App    1.259137    39Ap     1.272312
      40Ap     1.323149    17App    1.529035    41Ap     1.556207
      18App    1.601738    42Ap     1.688806    43Ap     1.818261
      44Ap     1.825686    19App    1.975622    45Ap     1.975664
      46Ap     1.998130    20App    2.011145    47Ap     2.018203
      21App    2.048095    48Ap     2.061126    22App    2.122150
      49Ap     2.163680    50Ap     2.165007    23App    2.210495
      24App    2.294751    51Ap     2.300342    52Ap     2.328185
      53Ap     2.414192    25App    2.448437    54Ap     2.462013
      26App    2.523421    55Ap     2.535674    56Ap     2.630653
      57Ap     2.668046    27App    2.728936    58Ap     2.750846
      59Ap     2.867383    60Ap     2.943779    28App    2.946874
      61Ap     3.701491    62Ap     3.893402    29App    4.035610
      30App    4.058478    63Ap     4.076676    31App    4.173142
      64Ap     4.202592    65Ap     4.274702    32App    4.301867
      66Ap     4.377139    33App    4.394005    67Ap     4.437310
      34App    4.440978    68Ap     4.576829    69Ap     4.784554
      70Ap     4.963654    35App    5.159009    71Ap     5.181688
      72Ap     5.310740    73Ap     5.378205    36App    5.529798
      74Ap     5.694534    75Ap     6.197603    37App    6.310271
      76Ap     6.310314    38App    6.372652    77Ap     6.375419
      39App    6.519537    78Ap     6.527199    79Ap     6.555619
      80Ap     6.634083    40App    6.724774    81Ap     6.812368
      41App    6.818441    82Ap     6.913738    42App    6.933644
      83Ap     6.966698    84Ap     7.049450    43App    7.148673
      44App    7.276289    85Ap     7.328502    45App    7.329468
      86Ap     7.359217    46App    7.441792    87Ap     7.662848
      88Ap     7.949356    89Ap     7.969686    90Ap     8.815482
      91Ap     9.386442    92Ap    16.565710

    Beta Occupied:

       1Ap   -20.656117     2Ap   -20.558398     3Ap    -1.343804
       4Ap    -1.101752     5Ap    -0.709531     6Ap    -0.581061
       7Ap    -0.542135     1App   -0.501742

    Beta Virtual:

       8Ap     0.034244     9Ap     0.046082     2App    0.047672
      10Ap     0.057645    11Ap     0.144180    12Ap     0.151005
       3App    0.160351    13Ap     0.179889    14Ap     0.210214
      15Ap     0.217810     4App    0.225922    16Ap     0.251246
      17Ap     0.274022     5App    0.282823    18Ap     0.295641
       6App    0.327125    19Ap     0.375930    20Ap     0.403259
      21Ap     0.461248    22Ap     0.561783     7App    0.632379
      23Ap     0.638912    24Ap     0.647139    25Ap     0.671524
      26Ap     0.713071     8App    0.726274     9App    0.735838
      10App    0.748450    27Ap     0.784238    28Ap     0.809305
      29Ap     0.857627    11App    0.867456    30Ap     0.918364
      12App    0.935795    31Ap     0.943803    13App    0.949784
      32Ap     0.953940    33Ap     0.974519    34Ap     1.016103
      14App    1.025055    35Ap     1.047992    36Ap     1.153775
      37Ap     1.177161    15App    1.181418    38Ap     1.219469
      16App    1.270264    39Ap     1.274402    40Ap     1.334033
      17App    1.529890    41Ap     1.562026    18App    1.603327
      42Ap     1.715824    43Ap     1.823414    44Ap     1.832880
      45Ap     2.006157    19App    2.013729    46Ap     2.013978
      20App    2.052716    47Ap     2.066135    21App    2.169897
      22App    2.179535    48Ap     2.179742    49Ap     2.203336
      50Ap     2.226478    23App    2.248207    24App    2.296656
      51Ap     2.316266    52Ap     2.342724    53Ap     2.421690
      25App    2.450905    54Ap     2.462824    26App    2.532010
      55Ap     2.542995    56Ap     2.636752    57Ap     2.679098
      27App    2.730084    58Ap     2.757690    59Ap     2.872009
      60Ap     2.946505    28App    2.947560    61Ap     3.701945
      62Ap     3.896188    29App    4.035823    30App    4.146868
      63Ap     4.182740    64Ap     4.244059    31App    4.254716
      65Ap     4.296024    32App    4.302163    66Ap     4.392262
      33App    4.394193    34App    4.442521    67Ap     4.467898
      68Ap     4.577778    69Ap     4.785978    70Ap     4.965892
      35App    5.158995    71Ap     5.182219    72Ap     5.310960
      73Ap     5.379243    36App    5.529881    74Ap     5.695176
      75Ap     6.198057    37App    6.419232    76Ap     6.419259
      38App    6.448069    77Ap     6.450918    78Ap     6.533439
      39App    6.574502    79Ap     6.605451    80Ap     6.680239
      40App    6.729053    81Ap     6.915936    41App    7.004533
      82Ap     7.005523    42App    7.041920    83Ap     7.071272
      84Ap     7.129786    43App    7.150930    44App    7.276795
      85Ap     7.328597    45App    7.330269    86Ap     7.359717
      46App    7.442232    87Ap     7.664175    88Ap     7.949703
      89Ap     7.969849    90Ap     8.818015    91Ap     9.460936
      92Ap    16.566269

    Final Occupation by Irrep:
             Ap   App
    DOCC [     7,    1 ]
    SOCC [     1,    1 ]

  @UHF Final Energy:  -150.87450974702526

   => Energetics <=

    Nuclear Repulsion Energy =             22.8505006433478499
    One-Electron Energy =                -253.4819188650230899
    Two-Electron Energy =                  79.7569084746499755
    Total Energy =                       -150.8745097470252574

  UHF NO Occupations:
  HONO-2 :    7 Ap 1.9970295
  HONO-1 :    2App 1.0000000
  HONO-0 :    8 Ap 1.0000000
  LUNO+0 :    9 Ap 0.0029705
  LUNO+1 :   10 Ap 0.0017130
  LUNO+2 :   11 Ap 0.0000024
  LUNO+3 :   12 Ap 0.0000019

Computation Completed

Properties will be evaluated at   0.000000,   0.000000,   0.000000 [a0]

Properties computed using the SCF density matrix

  Nuclear Dipole Moment: [e a0]
     X:    -2.1918      Y:     0.8283      Z:     0.0000

  Electronic Dipole Moment: [e a0]
     X:     2.7557      Y:    -0.2121      Z:     0.0000

  Dipole Moment: [e a0]
     X:     0.5639      Y:     0.6162      Z:     0.0000     Total:     0.8353

  Dipole Moment: [D]
     X:     1.4333      Y:     1.5662      Z:     0.0000     Total:     2.1231

*** tstop() called on c4-12.compute.lan at Tue Mar  9 14:57:34 2021
Module time:
	user time   =      56.28 seconds =       0.94 minutes
	system time =       0.83 seconds =       0.01 minutes
	total time  =          5 seconds =       0.08 minutes
Total time:
	user time   =      56.28 seconds =       0.94 minutes
	system time =       0.83 seconds =       0.01 minutes
	total time  =          5 seconds =       0.08 minutes
 MINTS: Wrapper to libmints.
   by Justin Turney

   Calculation information:
      Number of threads:                12
      Number of atoms:                   4
      Number of AO shells:              46
      Number of SO shells:              46
      Number of primitives:             82
      Number of atomic orbitals:       160
      Number of basis functions:       138

      Number of irreps:                  2
      Integral cutoff                 0.00e+00
      Number of functions per irrep: [  92   46 ]

 OEINTS: Overlap, kinetic, potential, dipole, and quadrupole integrals
         stored in file 35.

      Computing two-electron integrals...done
      Computed 22954791 non-zero two-electron integrals.
        Stored in file 33.

*** tstart() called on c4-12.compute.lan
*** at Tue Mar  9 14:57:37 2021

	Wfn Parameters:
	--------------------
	Wavefunction         = CCSD_T
	Number of irreps     = 2
	Number of MOs        = 138
	Number of active MOs = 136
	AO-Basis             = NONE
	Semicanonical        = false
	Reference            = UHF
	Print Level          = 1

	IRREP	# MOs	# FZDC	# DOCC	# SOCC	# VIRT	# FZVR
	-----	-----	------	------	------	------	------
	 Ap	   92	    2	    5	    1	    84	    0
	 App	   46	    0	    1	    1	    44	    0
	Transforming integrals...
	IWL integrals will be deleted.
	(OO|OO)...
	Presorting SO-basis two-electron integrals.
	Sorting File: SO Ints (nn|nn) nbuckets = 1
	Transforming the one-electron integrals and constructing Fock matrices
	Starting AA/AB first half-transformation.
	Sorting AA/AB half-transformed integrals.
	Starting BB first half-transformation.
	Sorting BB half-transformed integrals.
	First half integral transformation complete.
	Starting AA second half-transformation.
	Starting AB second half-transformation.
	Starting BB second half-transformation.
	Two-electron integral transformation complete.
	(OO|OV)...
	Starting AA second half-transformation.
	Starting AB second half-transformation.
	Starting BB second half-transformation.
	Two-electron integral transformation complete.
	(OO|VV)...
	Starting AA second half-transformation.
	Starting AB second half-transformation.
	Starting BB second half-transformation.
	Two-electron integral transformation complete.
	(OV|OO)...
	Starting AA/AB first half-transformation.
	Sorting AA/AB half-transformed integrals.
	Starting BB first half-transformation.
	Sorting BB half-transformed integrals.
	First half integral transformation complete.
	Starting AA second half-transformation.
	Starting AB second half-transformation.
	Starting BB second half-transformation.
	Two-electron integral transformation complete.
	(OV|OV)...
	Starting AA second half-transformation.
	Starting AB second half-transformation.
	Starting BB second half-transformation.
	Two-electron integral transformation complete.
	(OV|VV)...
	Starting AA second half-transformation.
	Starting AB second half-transformation.
	Starting BB second half-transformation.
	Two-electron integral transformation complete.
	(VV|OO)...
	Starting AA/AB first half-transformation.
	Sorting AA/AB half-transformed integrals.
	Starting BB first half-transformation.
	Sorting BB half-transformed integrals.
	First half integral transformation complete.
	Starting AA second half-transformation.
	Starting AB second half-transformation.
	Starting BB second half-transformation.
	Two-electron integral transformation complete.
	(VV|OV)...
	Starting AA second half-transformation.
	Starting AB second half-transformation.
	Starting BB second half-transformation.
	Two-electron integral transformation complete.
	(VV|VV)...
	Starting AA second half-transformation.
	Starting AB second half-transformation.
	Starting BB second half-transformation.
	Two-electron integral transformation complete.
	Frozen core energy     =   -125.82552700131077

	Size of irrep 0 of <AB|CD> integrals:     19.643 (MW) /    157.141 (MB)
	Size of irrep 1 of <AB|CD> integrals:     13.660 (MW) /    109.283 (MB)
	Total:                                    33.303 (MW) /    266.424 (MB)

	Size of irrep 0 of <ab|cd> integrals:     20.794 (MW) /    166.349 (MB)
	Size of irrep 1 of <ab|cd> integrals:     14.631 (MW) /    117.045 (MB)
	Total:                                    35.424 (MW) /    283.394 (MB)

	Size of irrep 0 of <Ab|Cd> integrals:     83.174 (MW) /    665.395 (MB)
	Size of irrep 1 of <Ab|Cd> integrals:     56.550 (MW) /    452.403 (MB)
	Total:                                   139.725 (MW) /   1117.798 (MB)

	Size of irrep 0 of <IA|BC> integrals:      5.323 (MW) /     42.586 (MB)
	Size of irrep 1 of <IA|BC> integrals:      3.193 (MW) /     25.547 (MB)
	Total:                                     8.517 (MW) /     68.133 (MB)

	Size of irrep 0 of <ia|bc> integrals:      4.348 (MW) /     34.780 (MB)
	Size of irrep 1 of <ia|bc> integrals:      2.372 (MW) /     18.972 (MB)
	Total:                                     6.719 (MW) /     53.752 (MB)

	Size of irrep 0 of <Ia|Bc> integrals:      5.472 (MW) /     43.776 (MB)
	Size of irrep 1 of <Ia|Bc> integrals:      3.309 (MW) /     26.470 (MB)
	Total:                                     8.781 (MW) /     70.246 (MB)

	Size of irrep 0 of <iA|bC> integrals:      4.232 (MW) /     33.853 (MB)
	Size of irrep 1 of <iA|bC> integrals:      2.286 (MW) /     18.289 (MB)
	Total:                                     6.518 (MW) /     52.142 (MB)

	Size of irrep 0 of tIjAb amplitudes:       0.292 (MW) /      2.335 (MB)
	Size of irrep 1 of tIjAb amplitudes:       0.120 (MW) /      0.963 (MB)
	Total:                                     0.412 (MW) /      3.297 (MB)

	Nuclear Rep. energy          =     22.85050064334785
	SCF energy                   =   -150.87450974702526
	One-electron energy          =    -84.33853333258470
	Two-electron (AA) energy     =     10.12286504494474
	Two-electron (BB) energy     =      5.38680428211827
	Two-electron (AB) energy     =     20.92938061645762
	Two-electron energy          =     36.43904994352063
	Reference energy             =   -150.87450974702699

*** tstop() called on c4-12.compute.lan at Tue Mar  9 14:58:08 2021
Module time:
	user time   =     104.81 seconds =       1.75 minutes
	system time =      16.39 seconds =       0.27 minutes
	total time  =         31 seconds =       0.52 minutes
Total time:
	user time   =     167.34 seconds =       2.79 minutes
	system time =      17.77 seconds =       0.30 minutes
	total time  =         39 seconds =       0.65 minutes
            **************************
            *                        *
            *        CCENERGY        *
            *                        *
            **************************

    Nuclear Rep. energy (wfn)     =   22.850500643347850
    SCF energy          (wfn)     = -150.874509747025257
    Reference energy    (file100) = -150.874509747026991

    Input parameters:
    -----------------
    Wave function   =     CCSD_T
    Reference wfn   =     UHF
    Brueckner       =     No
    Memory (Mbytes) =     4000.0
    Maxiter         =     50
    R_Convergence   =     1.0e-10
    E_Convergence   =     1.0e-10
    Restart         =     Yes
    DIIS            =     Yes
    AO Basis        =     NONE
    ABCD            =     NEW
    Cache Level     =     2
    Cache Type      =     LRU
    Print Level     =     1
    Num. of threads =     12
    # Amps to Print =     10
    Print MP2 Amps? =     No
    Analyze T2 Amps =     No
    Print Pair Ener =     No
    Local CC        =     No
    SCS-MP2         =     False
    SCSN-MP2        =     False
    SCS-CCSD        =     False

MP2 correlation energy -0.4164836249166131
                Solving CC Amplitude Equations
                ------------------------------
  Iter             Energy              RMS        T1Diag      D1Diag    New D1Diag    D2Diag
  ----     ---------------------    ---------   ----------  ----------  ----------   --------
     0        -0.416483624916613    0.000e+00    0.000000    0.000000    0.000000    0.000000
     1        -0.427242687730270    5.677e-02    0.010524    0.000000    0.000000    0.000000
     2        -0.435324009619140    1.685e-02    0.011014    0.000000    0.000000    0.000000
     3        -0.437434848192509    8.553e-03    0.012880    0.000000    0.000000    0.000000
     4        -0.437309784351512    2.532e-03    0.013247    0.000000    0.000000    0.000000
     5        -0.437294817647959    1.324e-03    0.013403    0.000000    0.000000    0.000000
     6        -0.437322102522898    5.153e-04    0.013426    0.000000    0.000000    0.000000
     7        -0.437326906705121    2.662e-04    0.013421    0.000000    0.000000    0.000000
     8        -0.437327471160004    9.580e-05    0.013416    0.000000    0.000000    0.000000
     9        -0.437328869443783    6.857e-05    0.013417    0.000000    0.000000    0.000000
    10        -0.437327328496447    5.735e-05    0.013418    0.000000    0.000000    0.000000
    11        -0.437327453368992    5.417e-05    0.013419    0.000000    0.000000    0.000000
    12        -0.437327257596770    5.247e-05    0.013421    0.000000    0.000000    0.000000
    13        -0.437327241879376    5.153e-05    0.013423    0.000000    0.000000    0.000000
    14        -0.437328142272181    5.027e-05    0.013433    0.000000    0.000000    0.000000
    15        -0.437328471815383    4.596e-05    0.013477    0.000000    0.000000    0.000000
    16        -0.437328241740418    3.333e-05    0.013594    0.000000    0.000000    0.000000
    17        -0.437327952291627    1.699e-05    0.013665    0.000000    0.000000    0.000000
    18        -0.437327807808272    7.986e-06    0.013686    0.000000    0.000000    0.000000
    19        -0.437328053112752    3.511e-06    0.013692    0.000000    0.000000    0.000000
    20        -0.437328171101487    1.549e-06    0.013693    0.000000    0.000000    0.000000
    21        -0.437328177740212    6.159e-07    0.013693    0.000000    0.000000    0.000000
    22        -0.437328178671845    2.784e-07    0.013693    0.000000    0.000000    0.000000
    23        -0.437328178001788    1.396e-07    0.013693    0.000000    0.000000    0.000000
    24        -0.437328177243727    5.341e-08    0.013693    0.000000    0.000000    0.000000
    25        -0.437328178133259    2.646e-08    0.013693    0.000000    0.000000    0.000000
    26        -0.437328178561527    1.842e-08    0.013693    0.000000    0.000000    0.000000
    27        -0.437328178687937    1.672e-08    0.013693    0.000000    0.000000    0.000000
    28        -0.437328178666245    1.612e-08    0.013693    0.000000    0.000000    0.000000
    29        -0.437328178575896    1.571e-08    0.013693    0.000000    0.000000    0.000000
    30        -0.437328178395437    1.521e-08    0.013693    0.000000    0.000000    0.000000
    31        -0.437328178425235    1.370e-08    0.013693    0.000000    0.000000    0.000000
    32        -0.437328178664460    8.739e-09    0.013693    0.000000    0.000000    0.000000
    33        -0.437328178752445    4.054e-09    0.013693    0.000000    0.000000    0.000000
    34        -0.437328178807461    1.729e-09    0.013693    0.000000    0.000000    0.000000
    35        -0.437328178814192    6.791e-10    0.013693    0.000000    0.000000    0.000000
    36        -0.437328178813272    2.718e-10    0.013693    0.000000    0.000000    0.000000

      * MP2 total energy                      = -151.290993371943614
      * CCSD total energy                     = -151.311837925839427
      * CCSD(T) total energy                     = -151.324180359963236
*** Psi4 exiting successfully. Buy a developer a beer!
