                               Psi4 1.3.2 release

  ==> Input File <==

--------------------------------------------------------------------------
memory 4 GB

molecule  {
0 3
O    0.000000000000    0.000000000000   -1.632908056819
H    0.000000000000   -0.752409526768   -1.037073650819
H   -0.000000000000    0.752409526768   -1.037073650819
O    0.000000000000    0.000000000000    1.763598193081
}
set {
basis aug-cc-pvtz
reference uhf
e_convergence 10
scf_type pk
freeze_core true
}

set ccenergy {
e_convergence 10
r_convergence 10
}

e = energy('ccsd(t)')

print_out('Stephenergy {}'.format(e))

--------------------------------------------------------------------------

    Molecular point group: c2v

    Geometry (in Angstrom), charge = 0, multiplicity = 3:

       Center              X                  Y                   Z               Mass
    ------------   -----------------  -----------------  -----------------  -----------------
         O            0.000000000000     0.000000000000    -1.632908056819    15.994914619570
         H            0.000000000000    -0.752409526768    -1.037073650819     1.007825032230
         H           -0.000000000000     0.752409526768    -1.037073650819     1.007825032230
         O            0.000000000000     0.000000000000     1.763598193081    15.994914619570

  Charge       = 0
  Multiplicity = 3
  Basis Set: AUG-CC-PVTZ
    Blend: AUG-CC-PVTZ

    Orbital Energies [Eh]
    ---------------------

    Alpha Occupied:

       1A1   -20.729217     2A1   -20.562554     3A1    -1.438238
       4A1    -1.347860     1B2    -0.729658     1B1    -0.729243
       2B2    -0.708764     5A1    -0.632747     6A1    -0.580436
       2B1    -0.505384

    Alpha Virtual:

       7A1     0.035563     3B2     0.048559     3B1     0.131978
       8A1     0.134525     9A1     0.148454     4B2     0.158155
       4B1     0.181417     5B2     0.185028    10A1     0.189436
      11A1     0.251440     6B2     0.258230     1A2     0.266077
      12A1     0.273581     5B1     0.320277    13A1     0.368854
       7B2     0.382763    14A1     0.454625     8B2     0.472328
       2A2     0.609197     9B2     0.617281    15A1     0.619355
      16A1     0.620504     6B1     0.641230    17A1     0.717934
       3A2     0.731132    10B2     0.736813     7B1     0.743139
      18A1     0.800866    19A1     0.839174     8B1     0.839732
      11B2     0.853494     9B1     0.915552    20A1     0.929847
       4A2     0.935100    12B2     0.942249    21A1     0.959002
      10B1     0.963739    13B2     0.965985    22A1     1.050127
      14B2     1.055244    11B1     1.125809     5A2     1.186777
      23A1     1.188204    15B2     1.260799    24A1     1.264040
      16B2     1.274727    25A1     1.350361     6A2     1.512031
      12B1     1.592438    26A1     1.639650    27A1     1.827989
      17B2     1.832967    18B2     1.972725    13B1     1.978383
      19B2     1.992036    28A1     2.005332     7A2     2.011683
      14B1     2.026839    29A1     2.036954     8A2     2.041225
      20B2     2.084239    30A1     2.088338    15B1     2.122081
      31A1     2.150538    21B2     2.267184    16B1     2.280617
       9A2     2.330761    32A1     2.344061    33A1     2.403684
      34A1     2.489442    22B2     2.494189    17B1     2.510154
      35A1     2.576347    23B2     2.688346    18B1     2.718904
      36A1     2.823244    10A2     2.890086    24B2     2.904449
      25B2     3.670480    37A1     3.755285    11A2     4.033920
      19B1     4.050917    26B2     4.086838    20B1     4.104568
      38A1     4.153639    27B2     4.281213    21B1     4.282959
      39A1     4.367657    12A2     4.384421    40A1     4.410991
      22B1     4.418618    28B2     4.532786    41A1     4.752936
      29B2     4.859127    13A2     5.154695    30B2     5.169676
      31B2     5.253885    42A1     5.378481    23B1     5.534353
      43A1     5.677486    44A1     6.204079    24B1     6.314921
      32B2     6.315850    14A2     6.370825    45A1     6.376526
      25B1     6.402972    33B2     6.453905    46A1     6.483838
      34B2     6.528093    26B1     6.740375    15A2     6.819300
      47A1     6.820804    27B1     6.928929    48A1     6.934904
      35B2     6.959039    49A1     7.034609    28B1     7.137947
      29B1     7.262870    16A2     7.322693    36B2     7.348994
      17A2     7.359089    50A1     7.360306    51A1     7.553974
      52A1     7.901212    37B2     7.944549    53A1     8.543795
      38B2     8.823860    54A1    15.788817

    Beta Occupied:

       1A1   -20.650655     2A1   -20.562594     3A1    -1.348047
       4A1    -1.095952     1B2    -0.708922     5A1    -0.584928
       6A1    -0.538672     1B1    -0.505373

    Beta Virtual:

       2B2     0.035222     7A1     0.036694     2B1     0.049711
       3B2     0.069593     8A1     0.140670     9A1     0.151001
       3B1     0.160402     4B2     0.180751    10A1     0.189758
       5B2     0.222397     4B1     0.225395    11A1     0.260495
       6B2     0.263442     1A2     0.266409    12A1     0.275103
       5B1     0.320970    13A1     0.372248     7B2     0.388059
      14A1     0.455795     8B2     0.472837     9B2     0.619656
      15A1     0.622215     2A2     0.641389    16A1     0.651814
       6B1     0.653180    17A1     0.719256     3A2     0.732536
       7B1     0.745302    10B2     0.748320    18A1     0.810414
      19A1     0.850948     8B1     0.911677     9B1     0.931607
      20A1     0.935367     4A2     0.936594    11B2     0.940814
      12B2     0.945396    21A1     0.959980    13B2     1.011457
      10B1     1.026096    22A1     1.050742    14B2     1.058186
      11B1     1.131412     5A2     1.187513    23A1     1.192307
      15B2     1.270618    16B2     1.281853    24A1     1.285533
      25A1     1.404466     6A2     1.512152    12B1     1.592557
      26A1     1.652973    27A1     1.829202    17B2     1.834253
      18B2     1.981616    13B1     2.016446    19B2     2.022023
      28A1     2.030660     7A2     2.043162    14B1     2.047497
      29A1     2.101587    20B2     2.129331    30A1     2.159854
       8A2     2.182601    15B1     2.190470    31A1     2.197543
      16B1     2.285232    21B2     2.311640     9A2     2.333870
      32A1     2.363324    33A1     2.415544    34A1     2.493531
      22B2     2.499106    17B1     2.514875    35A1     2.579112
      23B2     2.688525    18B1     2.719001    36A1     2.823599
      10A2     2.890112    24B2     2.906482    25B2     3.670530
      37A1     3.755411    11A2     4.034012    19B1     4.103667
      38A1     4.167897    20B1     4.223924    26B2     4.243812
      21B1     4.282995    27B2     4.294260    12A2     4.384471
      39A1     4.386724    22B1     4.418823    40A1     4.425191
      28B2     4.533035    41A1     4.753119    29B2     4.859241
      13A2     5.154714    30B2     5.169683    31B2     5.253910
      42A1     5.378946    23B1     5.534357    43A1     5.677826
      44A1     6.206059    24B1     6.423761    32B2     6.424531
      14A2     6.447471    45A1     6.451360    25B1     6.458145
      33B2     6.496815    46A1     6.532458    34B2     6.541826
      26B1     6.747026    47A1     6.935323    15A2     7.008291
      48A1     7.010306    27B1     7.036073    35B2     7.068107
      49A1     7.115044    28B1     7.138301    29B1     7.262828
      16A2     7.322744    36B2     7.350937    17A2     7.359146
      50A1     7.361073    51A1     7.554740    52A1     7.901457
      37B2     7.944531    53A1     8.628604    38B2     8.823795
      54A1    15.788812

    Final Occupation by Irrep:
             A1    A2    B1    B2
    DOCC [     6,    0,    1,    1 ]
    SOCC [     0,    0,    1,    1 ]

  @UHF Final Energy:  -150.87368177995643

   => Energetics <=

    Nuclear Repulsion Energy =             22.0643308741807864
    One-Electron Energy =                -251.9167805452518678
    Two-Electron Energy =                  78.9787678911146429
    Total Energy =                       -150.8736817799564278

  UHF NO Occupations:
  HONO-2 :    6 A1 1.9970746
  HONO-1 :    2 B2 1.0000000
  HONO-0 :    2 B1 1.0000000
  LUNO+0 :    7 A1 0.0029254
  LUNO+1 :    8 A1 0.0016833
  LUNO+2 :    9 A1 0.0000024
  LUNO+3 :   10 A1 0.0000005

Computation Completed

Properties will be evaluated at   0.000000,   0.000000,   0.000000 [a0]

Properties computed using the SCF density matrix

  Nuclear Dipole Moment: [e a0]
     X:     0.0000      Y:     0.0000      Z:    -1.9438

  Electronic Dipole Moment: [e a0]
     X:     0.0000      Y:     0.0000      Z:     2.7781

  Dipole Moment: [e a0]
     X:     0.0000      Y:     0.0000      Z:     0.8343     Total:     0.8343

  Dipole Moment: [D]
     X:     0.0000      Y:     0.0000      Z:     2.1206     Total:     2.1206

*** tstop() called on c2-24.compute.lan at Wed Mar 10 09:41:58 2021
Module time:
	user time   =      41.52 seconds =       0.69 minutes
	system time =       2.15 seconds =       0.04 minutes
	total time  =          4 seconds =       0.07 minutes
Total time:
	user time   =      41.52 seconds =       0.69 minutes
	system time =       2.15 seconds =       0.04 minutes
	total time  =          4 seconds =       0.07 minutes
 MINTS: Wrapper to libmints.
   by Justin Turney

   Calculation information:
      Number of threads:                12
      Number of atoms:                   4
      Number of AO shells:              46
      Number of SO shells:              37
      Number of primitives:             82
      Number of atomic orbitals:       160
      Number of basis functions:       138

      Number of irreps:                  4
      Integral cutoff                 0.00e+00
      Number of functions per irrep: [  54   17   29   38 ]

 OEINTS: Overlap, kinetic, potential, dipole, and quadrupole integrals
         stored in file 35.

      Computing two-electron integrals...done
      Computed 11337125 non-zero two-electron integrals.
        Stored in file 33.

*** tstart() called on c2-24.compute.lan
*** at Wed Mar 10 09:42:01 2021

	Wfn Parameters:
	--------------------
	Wavefunction         = CCSD_T
	Number of irreps     = 4
	Number of MOs        = 138
	Number of active MOs = 136
	AO-Basis             = NONE
	Semicanonical        = false
	Reference            = UHF
	Print Level          = 1

	IRREP	# MOs	# FZDC	# DOCC	# SOCC	# VIRT	# FZVR
	-----	-----	------	------	------	------	------
	 A1	   54	    2	    4	    0	    48	    0
	 A2	   17	    0	    0	    0	    17	    0
	 B1	   29	    0	    1	    1	    27	    0
	 B2	   38	    0	    1	    1	    36	    0
	Transforming integrals...
	IWL integrals will be deleted.
	(OO|OO)...
	Presorting SO-basis two-electron integrals.
	Sorting File: SO Ints (nn|nn) nbuckets = 1
	Transforming the one-electron integrals and constructing Fock matrices
	Starting AA/AB first half-transformation.
	Sorting AA/AB half-transformed integrals.
	Starting BB first half-transformation.
	Sorting BB half-transformed integrals.
	First half integral transformation complete.
	Starting AA second half-transformation.
	Starting AB second half-transformation.
	Starting BB second half-transformation.
	Two-electron integral transformation complete.
	(OO|OV)...
	Starting AA second half-transformation.
	Starting AB second half-transformation.
	Starting BB second half-transformation.
	Two-electron integral transformation complete.
	(OO|VV)...
	Starting AA second half-transformation.
	Starting AB second half-transformation.
	Starting BB second half-transformation.
	Two-electron integral transformation complete.
	(OV|OO)...
	Starting AA/AB first half-transformation.
	Sorting AA/AB half-transformed integrals.
	Starting BB first half-transformation.
	Sorting BB half-transformed integrals.
	First half integral transformation complete.
	Starting AA second half-transformation.
	Starting AB second half-transformation.
	Starting BB second half-transformation.
	Two-electron integral transformation complete.
	(OV|OV)...
	Starting AA second half-transformation.
	Starting AB second half-transformation.
	Starting BB second half-transformation.
	Two-electron integral transformation complete.
	(OV|VV)...
	Starting AA second half-transformation.
	Starting AB second half-transformation.
	Starting BB second half-transformation.
	Two-electron integral transformation complete.
	(VV|OO)...
	Starting AA/AB first half-transformation.
	Sorting AA/AB half-transformed integrals.
	Starting BB first half-transformation.
	Sorting BB half-transformed integrals.
	First half integral transformation complete.
	Starting AA second half-transformation.
	Starting AB second half-transformation.
	Starting BB second half-transformation.
	Two-electron integral transformation complete.
	(VV|OV)...
	Starting AA second half-transformation.
	Starting AB second half-transformation.
	Starting BB second half-transformation.
	Two-electron integral transformation complete.
	(VV|VV)...
	Starting AA second half-transformation.
	Starting AB second half-transformation.
	Starting BB second half-transformation.
	Two-electron integral transformation complete.
	Frozen core energy     =   -125.50878059750328

	Size of irrep 0 of <AB|CD> integrals:      5.040 (MW) /     40.320 (MB)
	Size of irrep 1 of <AB|CD> integrals:      3.197 (MW) /     25.576 (MB)
	Size of irrep 2 of <AB|CD> integrals:      3.640 (MW) /     29.124 (MB)
	Size of irrep 3 of <AB|CD> integrals:      4.783 (MW) /     38.264 (MB)
	Total:                                    16.660 (MW) /    133.283 (MB)

	Size of irrep 0 of <ab|cd> integrals:      5.327 (MW) /     42.615 (MB)
	Size of irrep 1 of <ab|cd> integrals:      3.430 (MW) /     27.439 (MB)
	Size of irrep 2 of <ab|cd> integrals:      3.893 (MW) /     31.142 (MB)
	Size of irrep 3 of <ab|cd> integrals:      5.072 (MW) /     40.572 (MB)
	Total:                                    17.721 (MW) /    141.768 (MB)

	Size of irrep 0 of <Ab|Cd> integrals:     21.912 (MW) /    175.294 (MB)
	Size of irrep 1 of <Ab|Cd> integrals:     13.242 (MW) /    105.939 (MB)
	Size of irrep 2 of <Ab|Cd> integrals:     15.062 (MW) /    120.497 (MB)
	Size of irrep 3 of <Ab|Cd> integrals:     19.705 (MW) /    157.638 (MB)
	Total:                                    69.921 (MW) /    559.368 (MB)

	Size of irrep 0 of <IA|BC> integrals:      1.469 (MW) /     11.748 (MB)
	Size of irrep 1 of <IA|BC> integrals:      0.694 (MW) /      5.550 (MB)
	Size of irrep 2 of <IA|BC> integrals:      0.908 (MW) /      7.266 (MB)
	Size of irrep 3 of <IA|BC> integrals:      1.198 (MW) /      9.588 (MB)
	Total:                                     4.269 (MW) /     34.152 (MB)

	Size of irrep 0 of <ia|bc> integrals:      1.220 (MW) /      9.758 (MB)
	Size of irrep 1 of <ia|bc> integrals:      0.493 (MW) /      3.941 (MB)
	Size of irrep 2 of <ia|bc> integrals:      0.698 (MW) /      5.588 (MB)
	Size of irrep 3 of <ia|bc> integrals:      0.959 (MW) /      7.675 (MB)
	Total:                                     3.370 (MW) /     26.961 (MB)

	Size of irrep 0 of <Ia|Bc> integrals:      1.507 (MW) /     12.058 (MB)
	Size of irrep 1 of <Ia|Bc> integrals:      0.721 (MW) /      5.764 (MB)
	Size of irrep 2 of <Ia|Bc> integrals:      0.939 (MW) /      7.514 (MB)
	Size of irrep 3 of <Ia|Bc> integrals:      1.234 (MW) /      9.872 (MB)
	Total:                                     4.401 (MW) /     35.208 (MB)

	Size of irrep 0 of <iA|bC> integrals:      1.194 (MW) /      9.549 (MB)
	Size of irrep 1 of <iA|bC> integrals:      0.477 (MW) /      3.814 (MB)
	Size of irrep 2 of <iA|bC> integrals:      0.671 (MW) /      5.371 (MB)
	Size of irrep 3 of <iA|bC> integrals:      0.928 (MW) /      7.422 (MB)
	Total:                                     3.270 (MW) /     26.156 (MB)

	Size of irrep 0 of tIjAb amplitudes:       0.094 (MW) /      0.749 (MB)
	Size of irrep 1 of tIjAb amplitudes:       0.015 (MW) /      0.116 (MB)
	Size of irrep 2 of tIjAb amplitudes:       0.047 (MW) /      0.373 (MB)
	Size of irrep 3 of tIjAb amplitudes:       0.053 (MW) /      0.426 (MB)
	Total:                                     0.208 (MW) /      1.664 (MB)

	Nuclear Rep. energy          =     22.06433087418079
	SCF energy                   =   -150.87368177995643
	One-electron energy          =    -83.40423986947876
	Two-electron (AA) energy     =      9.97033717142337
	Two-electron (BB) energy     =      5.30630381584237
	Two-electron (AB) energy     =     20.69836682557780
	Two-electron energy          =     35.97500781284354
	Reference energy             =   -150.87368177995771

*** tstop() called on c2-24.compute.lan at Wed Mar 10 09:42:38 2021
Module time:
	user time   =     277.88 seconds =       4.63 minutes
	system time =      18.16 seconds =       0.30 minutes
	total time  =         37 seconds =       0.62 minutes
Total time:
	user time   =     325.31 seconds =       5.42 minutes
	system time =      20.84 seconds =       0.35 minutes
	total time  =         44 seconds =       0.73 minutes
            **************************
            *                        *
            *        CCENERGY        *
            *                        *
            **************************

    Nuclear Rep. energy (wfn)     =   22.064330874180786
    SCF energy          (wfn)     = -150.873681779956428
    Reference energy    (file100) = -150.873681779957707

    Input parameters:
    -----------------
    Wave function   =     CCSD_T
    Reference wfn   =     UHF
    Brueckner       =     No
    Memory (Mbytes) =     4000.0
    Maxiter         =     50
    R_Convergence   =     1.0e-10
    E_Convergence   =     1.0e-10
    Restart         =     Yes
    DIIS            =     Yes
    AO Basis        =     NONE
    ABCD            =     NEW
    Cache Level     =     2
    Cache Type      =     LRU
    Print Level     =     1
    Num. of threads =     12
    # Amps to Print =     10
    Print MP2 Amps? =     No
    Analyze T2 Amps =     No
    Print Pair Ener =     No
    Local CC        =     No
    SCS-MP2         =     False
    SCSN-MP2        =     False
    SCS-CCSD        =     False

MP2 correlation energy -0.4156202931587258
                Solving CC Amplitude Equations
                ------------------------------
  Iter             Energy              RMS        T1Diag      D1Diag    New D1Diag    D2Diag
  ----     ---------------------    ---------   ----------  ----------  ----------   --------
     0        -0.415620293158726    0.000e+00    0.000000    0.000000    0.000000    0.000000
     1        -0.426517833620633    5.629e-02    0.010345    0.000000    0.000000    0.000000
     2        -0.434592774479854    1.675e-02    0.010852    0.000000    0.000000    0.000000
     3        -0.436682993632886    8.392e-03    0.012665    0.000000    0.000000    0.000000
     4        -0.436559053625520    2.489e-03    0.013009    0.000000    0.000000    0.000000
     5        -0.436546810683629    1.260e-03    0.013152    0.000000    0.000000    0.000000
     6        -0.436572334645407    4.980e-04    0.013166    0.000000    0.000000    0.000000
     7        -0.436576533736721    2.267e-04    0.013156    0.000000    0.000000    0.000000
     8        -0.436577256769249    6.824e-05    0.013150    0.000000    0.000000    0.000000
     9        -0.436578475904430    2.843e-05    0.013150    0.000000    0.000000    0.000000
    10        -0.436577293098941    1.094e-05    0.013149    0.000000    0.000000    0.000000
    11        -0.436577400490999    5.567e-06    0.013149    0.000000    0.000000    0.000000
    12        -0.436577361044162    2.751e-06    0.013150    0.000000    0.000000    0.000000
    13        -0.436577356624996    1.460e-06    0.013150    0.000000    0.000000    0.000000
    14        -0.436577386029393    6.664e-07    0.013150    0.000000    0.000000    0.000000
    15        -0.436577384875512    1.737e-07    0.013150    0.000000    0.000000    0.000000
    16        -0.436577384764855    1.062e-07    0.013150    0.000000    0.000000    0.000000
    17        -0.436577385582354    2.988e-08    0.013150    0.000000    0.000000    0.000000
    18        -0.436577385172302    1.348e-08    0.013150    0.000000    0.000000    0.000000

      * MP2 total energy                      = -151.289302073116431
      * CCSD total energy                     = -151.310259164878602
      * CCSD(T) total energy                     = -151.322465408910773
*** Psi4 exiting successfully. Buy a developer a beer!
