                               Psi4 1.3.2 release

  ==> Input File <==

--------------------------------------------------------------------------
memory 4 GB

molecule  {
0 3
O    0.000000000000    0.000000000000    1.270170376227
H    0.000000000000   -0.759829054300    1.861304178745
H   -0.000000000000    0.759829054300    1.861304178745
O    0.000000000000    0.000000000000   -1.504728545314
}
set {
basis aug-cc-pvtz
reference uhf
e_convergence 10
scf_type pk
freeze_core true
}

set ccenergy {
e_convergence 10
r_convergence 10
}

e = energy('ccsd(t)')

print_out('Stephenergy {}'.format(e))

--------------------------------------------------------------------------

    Molecular point group: c2v

    Geometry (in Angstrom), charge = 0, multiplicity = 3:

       Center              X                  Y                   Z               Mass
    ------------   -----------------  -----------------  -----------------  -----------------
         O            0.000000000000     0.000000000000     1.270170376227    15.994914619570
         H            0.000000000000    -0.759829054300     1.861304178745     1.007825032230
         H           -0.000000000000     0.759829054300     1.861304178745     1.007825032230
         O            0.000000000000     0.000000000000    -1.504728545314    15.994914619570

  Charge       = 0
  Multiplicity = 3
  Basis Set: AUG-CC-PVTZ
    Blend: AUG-CC-PVTZ

    Orbital Energies [Eh]
    ---------------------

    Alpha Occupied:

       1A1   -20.684525     2A1   -20.571457     3A1    -1.393942
       4A1    -1.354840     1B2    -0.717806     5A1    -0.688191
       1B1    -0.685246     6A1    -0.586557     2B2    -0.586255
       2B1    -0.513924

    Alpha Virtual:

       7A1     0.029525     3B2     0.047675     8A1     0.118621
       3B1     0.154106     9A1     0.159404     4B2     0.180279
       5B2     0.186936     4B1     0.192781    10A1     0.198032
       1A2     0.263766     6B2     0.263895    11A1     0.264764
      12A1     0.314307     5B1     0.326477    13A1     0.376000
       7B2     0.380379    14A1     0.449824     8B2     0.464125
       9B2     0.599870     6B1     0.643745    15A1     0.647482
       2A2     0.658147    16A1     0.666402    17A1     0.696153
       3A2     0.721872    10B2     0.722376     7B1     0.767377
      18A1     0.792531    19A1     0.818407     8B1     0.837842
      20A1     0.860980     9B1     0.901184    11B2     0.918506
       4A2     0.924640    12B2     0.946246    13B2     0.979552
      21A1     0.989213    10B1     1.012548    22A1     1.045995
      14B2     1.051094    11B1     1.121534     5A2     1.176620
      23A1     1.191426    15B2     1.198724    16B2     1.326834
      24A1     1.336965    25A1     1.442570     6A2     1.506818
      12B1     1.592997    26A1     1.665936    27A1     1.813242
      17B2     1.822561    18B2     1.975058    28A1     2.040730
      13B1     2.047728    19B2     2.054046     7A2     2.056749
      14B1     2.058890    29A1     2.079005    30A1     2.114912
       8A2     2.118693    20B2     2.135029    31A1     2.139349
      15B1     2.145179    32A1     2.252159    21B2     2.266986
      16B1     2.303391     9A2     2.311524    17B1     2.433892
      33A1     2.470004    22B2     2.483023    34A1     2.485954
      35A1     2.695172    18B1     2.715934    23B2     2.720635
      36A1     2.839977    24B2     2.860789    10A2     2.879551
      25B2     3.689028    37A1     3.750380    11A2     4.012979
      19B1     4.078143    20B1     4.099091    38A1     4.137948
      26B2     4.183035    27B2     4.280274    21B1     4.286900
      39A1     4.350347    12A2     4.381027    40A1     4.426004
      22B1     4.450210    28B2     4.515305    41A1     4.787956
      29B2     4.837516    13A2     5.140678    30B2     5.141006
      31B2     5.244112    42A1     5.335237    23B1     5.513238
      43A1     5.679912    44A1     6.198387    24B1     6.388863
      45A1     6.408745    14A2     6.410136    32B2     6.423569
      25B1     6.435479    33B2     6.485231    46A1     6.535332
      34B2     6.581749    26B1     6.715816    27B1     6.902245
      47A1     6.905459    15A2     6.924507    48A1     6.939645
      35B2     6.985648    49A1     7.046729    28B1     7.133207
      29B1     7.277235    36B2     7.303018    16A2     7.303897
      17A2     7.351560    50A1     7.438585    51A1     7.538583
      52A1     7.904633    37B2     7.913078    38B2     8.799898
      53A1     8.859784    54A1    15.734952

    Beta Occupied:

       1A1   -20.605660     2A1   -20.570997     3A1    -1.354154
       4A1    -1.051138     1B2    -0.717478     5A1    -0.588290
       1B1    -0.513266     2B2    -0.495676

    Beta Virtual:

       6A1     0.029363     3B2     0.047756     2B1     0.086514
       7A1     0.091923     8A1     0.140939     9A1     0.167023
       3B1     0.170703     4B2     0.180921     5B2     0.190510
      10A1     0.225521     4B1     0.253280     1A2     0.263769
       6B2     0.264343    11A1     0.288393    12A1     0.316660
       5B1     0.327784     7B2     0.380551    13A1     0.386393
      14A1     0.450927     8B2     0.464320     9B2     0.601481
      15A1     0.660489     6B1     0.667592     2A2     0.672565
      16A1     0.673544    17A1     0.713394     3A2     0.722342
      10B2     0.734591     7B1     0.778621    18A1     0.805794
       8B1     0.846914    19A1     0.850424     4A2     0.925025
      20A1     0.928178    11B2     0.936284    12B2     0.953275
      13B2     0.983272     9B1     0.986573    21A1     0.996335
      22A1     1.052134    14B2     1.052221    10B1     1.060419
      11B1     1.137559     5A2     1.176817    23A1     1.192915
      15B2     1.201471    16B2     1.329218    24A1     1.393631
      25A1     1.481881     6A2     1.507236    12B1     1.594968
      26A1     1.696175    27A1     1.818252    17B2     1.822899
      18B2     1.976414    28A1     2.070183    13B1     2.070820
      19B2     2.071476     7A2     2.081388    29A1     2.099156
      14B1     2.100205    30A1     2.154908    20B2     2.180697
       8A2     2.201913    31A1     2.207579    15B1     2.258284
      32A1     2.308954     9A2     2.311660    21B2     2.318820
      16B1     2.319267    17B1     2.441676    33A1     2.482962
      22B2     2.485927    34A1     2.514625    35A1     2.702415
      18B1     2.717634    23B2     2.721531    36A1     2.852194
      24B2     2.860978    10A2     2.879584    25B2     3.689888
      37A1     3.750511    11A2     4.013007    19B1     4.080361
      38A1     4.169687    26B2     4.218344    20B1     4.258993
      27B2     4.291455    21B1     4.292190    12A2     4.381132
      39A1     4.425079    22B1     4.455355    40A1     4.467338
      28B2     4.515380    41A1     4.798737    29B2     4.837673
      13A2     5.140752    30B2     5.141181    31B2     5.244517
      42A1     5.335892    23B1     5.513349    43A1     5.684380
      44A1     6.200032    24B1     6.485588    14A2     6.486965
      32B2     6.487755    45A1     6.493016    25B1     6.499126
      33B2     6.520688    46A1     6.606954    34B2     6.609818
      26B1     6.722680    47A1     6.955065    15A2     7.038058
      48A1     7.041893    27B1     7.084763    35B2     7.097506
      28B1     7.133629    49A1     7.174033    29B1     7.281395
      36B2     7.303203    16A2     7.304155    17A2     7.351978
      50A1     7.441321    51A1     7.539682    52A1     7.905198
      37B2     7.913425    38B2     8.800265    53A1     8.939209
      54A1    15.735268

    Final Occupation by Irrep:
             A1    A2    B1    B2
    DOCC [     5,    0,    1,    2 ]
    SOCC [     1,    0,    1,    0 ]

  @UHF Final Energy:  -150.87342392438842

   => Energetics <=

    Nuclear Repulsion Energy =             23.8016924906327532
    One-Electron Energy =                -255.6708303353909173
    Two-Electron Energy =                  80.9957139203697523
    Total Energy =                       -150.8734239243884190

  UHF NO Occupations:
  HONO-2 :    5 A1 1.9970493
  HONO-1 :    6 A1 1.0000000
  HONO-0 :    2 B1 1.0000000
  LUNO+0 :    7 A1 0.0029507
  LUNO+1 :    3 B2 0.0017948
  LUNO+2 :    8 A1 0.0000215
  LUNO+3 :    9 A1 0.0000024

Computation Completed

Properties will be evaluated at   0.000000,   0.000000,   0.000000 [a0]

Properties computed using the SCF density matrix

  Nuclear Dipole Moment: [e a0]
     X:     0.0000      Y:     0.0000      Z:     3.4887

  Electronic Dipole Moment: [e a0]
     X:     0.0000      Y:     0.0000      Z:    -2.6509

  Dipole Moment: [e a0]
     X:     0.0000      Y:     0.0000      Z:     0.8378     Total:     0.8378

  Dipole Moment: [D]
     X:     0.0000      Y:     0.0000      Z:     2.1295     Total:     2.1295

*** tstop() called on c4-19.compute.lan at Mon Mar  8 17:45:51 2021
Module time:
	user time   =      44.54 seconds =       0.74 minutes
	system time =       0.91 seconds =       0.02 minutes
	total time  =          4 seconds =       0.07 minutes
Total time:
	user time   =      44.54 seconds =       0.74 minutes
	system time =       0.91 seconds =       0.02 minutes
	total time  =          4 seconds =       0.07 minutes
 MINTS: Wrapper to libmints.
   by Justin Turney

   Calculation information:
      Number of threads:                12
      Number of atoms:                   4
      Number of AO shells:              46
      Number of SO shells:              37
      Number of primitives:             82
      Number of atomic orbitals:       160
      Number of basis functions:       138

      Number of irreps:                  4
      Integral cutoff                 0.00e+00
      Number of functions per irrep: [  54   17   29   38 ]

 OEINTS: Overlap, kinetic, potential, dipole, and quadrupole integrals
         stored in file 35.

      Computing two-electron integrals...done
      Computed 11526174 non-zero two-electron integrals.
        Stored in file 33.

*** tstart() called on c4-19.compute.lan
*** at Mon Mar  8 17:45:53 2021

	Wfn Parameters:
	--------------------
	Wavefunction         = CCSD_T
	Number of irreps     = 4
	Number of MOs        = 138
	Number of active MOs = 136
	AO-Basis             = NONE
	Semicanonical        = false
	Reference            = UHF
	Print Level          = 1

	IRREP	# MOs	# FZDC	# DOCC	# SOCC	# VIRT	# FZVR
	-----	-----	------	------	------	------	------
	 A1	   54	    2	    3	    1	    48	    0
	 A2	   17	    0	    0	    0	    17	    0
	 B1	   29	    0	    1	    1	    27	    0
	 B2	   38	    0	    2	    0	    36	    0
	Transforming integrals...
	IWL integrals will be deleted.
	(OO|OO)...
	Presorting SO-basis two-electron integrals.
	Sorting File: SO Ints (nn|nn) nbuckets = 1
	Transforming the one-electron integrals and constructing Fock matrices
	Starting AA/AB first half-transformation.
	Sorting AA/AB half-transformed integrals.
	Starting BB first half-transformation.
	Sorting BB half-transformed integrals.
	First half integral transformation complete.
	Starting AA second half-transformation.
	Starting AB second half-transformation.
	Starting BB second half-transformation.
	Two-electron integral transformation complete.
	(OO|OV)...
	Starting AA second half-transformation.
	Starting AB second half-transformation.
	Starting BB second half-transformation.
	Two-electron integral transformation complete.
	(OO|VV)...
	Starting AA second half-transformation.
	Starting AB second half-transformation.
	Starting BB second half-transformation.
	Two-electron integral transformation complete.
	(OV|OO)...
	Starting AA/AB first half-transformation.
	Sorting AA/AB half-transformed integrals.
	Starting BB first half-transformation.
	Sorting BB half-transformed integrals.
	First half integral transformation complete.
	Starting AA second half-transformation.
	Starting AB second half-transformation.
	Starting BB second half-transformation.
	Two-electron integral transformation complete.
	(OV|OV)...
	Starting AA second half-transformation.
	Starting AB second half-transformation.
	Starting BB second half-transformation.
	Two-electron integral transformation complete.
	(OV|VV)...
	Starting AA second half-transformation.
	Starting AB second half-transformation.
	Starting BB second half-transformation.
	Two-electron integral transformation complete.
	(VV|OO)...
	Starting AA/AB first half-transformation.
	Sorting AA/AB half-transformed integrals.
	Starting BB first half-transformation.
	Sorting BB half-transformed integrals.
	First half integral transformation complete.
	Starting AA second half-transformation.
	Starting AB second half-transformation.
	Starting BB second half-transformation.
	Two-electron integral transformation complete.
	(VV|OV)...
	Starting AA second half-transformation.
	Starting AB second half-transformation.
	Starting BB second half-transformation.
	Two-electron integral transformation complete.
	(VV|VV)...
	Starting AA second half-transformation.
	Starting AB second half-transformation.
	Starting BB second half-transformation.
	Two-electron integral transformation complete.
	Frozen core energy     =   -126.36255414213281

	Size of irrep 0 of <AB|CD> integrals:      5.040 (MW) /     40.320 (MB)
	Size of irrep 1 of <AB|CD> integrals:      3.197 (MW) /     25.576 (MB)
	Size of irrep 2 of <AB|CD> integrals:      3.640 (MW) /     29.124 (MB)
	Size of irrep 3 of <AB|CD> integrals:      4.783 (MW) /     38.264 (MB)
	Total:                                    16.660 (MW) /    133.283 (MB)

	Size of irrep 0 of <ab|cd> integrals:      5.382 (MW) /     43.059 (MB)
	Size of irrep 1 of <ab|cd> integrals:      3.389 (MW) /     27.114 (MB)
	Size of irrep 2 of <ab|cd> integrals:      3.936 (MW) /     31.490 (MB)
	Size of irrep 3 of <ab|cd> integrals:      5.018 (MW) /     40.141 (MB)
	Total:                                    17.726 (MW) /    141.804 (MB)

	Size of irrep 0 of <Ab|Cd> integrals:     22.024 (MW) /    176.194 (MB)
	Size of irrep 1 of <Ab|Cd> integrals:     13.170 (MW) /    105.357 (MB)
	Size of irrep 2 of <Ab|Cd> integrals:     15.140 (MW) /    121.119 (MB)
	Size of irrep 3 of <Ab|Cd> integrals:     19.598 (MW) /    156.787 (MB)
	Total:                                    69.932 (MW) /    559.457 (MB)

	Size of irrep 0 of <IA|BC> integrals:      1.469 (MW) /     11.748 (MB)
	Size of irrep 1 of <IA|BC> integrals:      0.694 (MW) /      5.550 (MB)
	Size of irrep 2 of <IA|BC> integrals:      0.908 (MW) /      7.266 (MB)
	Size of irrep 3 of <IA|BC> integrals:      1.198 (MW) /      9.588 (MB)
	Total:                                     4.269 (MW) /     34.152 (MB)

	Size of irrep 0 of <ia|bc> integrals:      1.178 (MW) /      9.426 (MB)
	Size of irrep 1 of <ia|bc> integrals:      0.527 (MW) /      4.212 (MB)
	Size of irrep 2 of <ia|bc> integrals:      0.663 (MW) /      5.301 (MB)
	Size of irrep 3 of <ia|bc> integrals:      0.999 (MW) /      7.992 (MB)
	Total:                                     3.366 (MW) /     26.931 (MB)

	Size of irrep 0 of <Ia|Bc> integrals:      1.521 (MW) /     12.164 (MB)
	Size of irrep 1 of <Ia|Bc> integrals:      0.711 (MW) /      5.690 (MB)
	Size of irrep 2 of <Ia|Bc> integrals:      0.949 (MW) /      7.595 (MB)
	Size of irrep 3 of <Ia|Bc> integrals:      1.222 (MW) /      9.775 (MB)
	Total:                                     4.403 (MW) /     35.225 (MB)

	Size of irrep 0 of <iA|bC> integrals:      1.140 (MW) /      9.123 (MB)
	Size of irrep 1 of <iA|bC> integrals:      0.512 (MW) /      4.094 (MB)
	Size of irrep 2 of <iA|bC> integrals:      0.634 (MW) /      5.074 (MB)
	Size of irrep 3 of <iA|bC> integrals:      0.978 (MW) /      7.827 (MB)
	Total:                                     3.265 (MW) /     26.118 (MB)

	Size of irrep 0 of tIjAb amplitudes:       0.084 (MW) /      0.676 (MB)
	Size of irrep 1 of tIjAb amplitudes:       0.022 (MW) /      0.174 (MB)
	Size of irrep 2 of tIjAb amplitudes:       0.039 (MW) /      0.311 (MB)
	Size of irrep 3 of tIjAb amplitudes:       0.062 (MW) /      0.496 (MB)
	Total:                                     0.207 (MW) /      1.657 (MB)

	Nuclear Rep. energy          =     23.80169249063275
	SCF energy                   =   -150.87342392438842
	One-electron energy          =    -85.37836055720945
	Two-electron (AA) energy     =     10.35998653546330
	Two-electron (BB) energy     =      5.46447918591305
	Two-electron (AB) energy     =     21.24133256294386
	Two-electron energy          =     37.06579828432022
	Reference energy             =   -150.87342392438927

*** tstop() called on c4-19.compute.lan at Mon Mar  8 17:46:20 2021
Module time:
	user time   =      52.34 seconds =       0.87 minutes
	system time =       9.55 seconds =       0.16 minutes
	total time  =         27 seconds =       0.45 minutes
Total time:
	user time   =     102.73 seconds =       1.71 minutes
	system time =      10.87 seconds =       0.18 minutes
	total time  =         33 seconds =       0.55 minutes
            **************************
            *                        *
            *        CCENERGY        *
            *                        *
            **************************

    Nuclear Rep. energy (wfn)     =   23.801692490632753
    SCF energy          (wfn)     = -150.873423924388419
    Reference energy    (file100) = -150.873423924389272

    Input parameters:
    -----------------
    Wave function   =     CCSD_T
    Reference wfn   =     UHF
    Brueckner       =     No
    Memory (Mbytes) =     4000.0
    Maxiter         =     50
    R_Convergence   =     1.0e-10
    E_Convergence   =     1.0e-10
    Restart         =     Yes
    DIIS            =     Yes
    AO Basis        =     NONE
    ABCD            =     NEW
    Cache Level     =     2
    Cache Type      =     LRU
    Print Level     =     1
    Num. of threads =     12
    # Amps to Print =     10
    Print MP2 Amps? =     No
    Analyze T2 Amps =     No
    Print Pair Ener =     No
    Local CC        =     No
    SCS-MP2         =     False
    SCSN-MP2        =     False
    SCS-CCSD        =     False

MP2 correlation energy -0.4163726517618335
                Solving CC Amplitude Equations
                ------------------------------
  Iter             Energy              RMS        T1Diag      D1Diag    New D1Diag    D2Diag
  ----     ---------------------    ---------   ----------  ----------  ----------   --------
     0        -0.416372651761833    0.000e+00    0.000000    0.000000    0.000000    0.000000
     1        -0.427124160658680    5.705e-02    0.010592    0.000000    0.000000    0.000000
     2        -0.435232970651161    1.705e-02    0.011084    0.000000    0.000000    0.000000
     3        -0.437389271478498    8.783e-03    0.013008    0.000000    0.000000    0.000000
     4        -0.437262796873428    2.680e-03    0.013416    0.000000    0.000000    0.000000
     5        -0.437253287782710    1.394e-03    0.013609    0.000000    0.000000    0.000000
     6        -0.437282299569453    5.297e-04    0.013635    0.000000    0.000000    0.000000
     7        -0.437285272180320    2.146e-04    0.013629    0.000000    0.000000    0.000000
     8        -0.437286222031582    6.685e-05    0.013624    0.000000    0.000000    0.000000
     9        -0.437286906220714    2.387e-05    0.013624    0.000000    0.000000    0.000000
    10        -0.437286007296813    9.225e-06    0.013624    0.000000    0.000000    0.000000
    11        -0.437286173641126    4.002e-06    0.013623    0.000000    0.000000    0.000000
    12        -0.437286133897763    1.446e-06    0.013623    0.000000    0.000000    0.000000
    13        -0.437286141877292    7.307e-07    0.013623    0.000000    0.000000    0.000000
    14        -0.437286164429202    3.050e-07    0.013623    0.000000    0.000000    0.000000
    15        -0.437286166088948    1.111e-07    0.013623    0.000000    0.000000    0.000000
    16        -0.437286166656787    4.976e-08    0.013623    0.000000    0.000000    0.000000
    17        -0.437286167232949    1.920e-08    0.013623    0.000000    0.000000    0.000000
    18        -0.437286167089014    9.988e-09    0.013623    0.000000    0.000000    0.000000

      * MP2 total energy                      = -151.289796576151105
      * CCSD total energy                     = -151.310710091232380
      * CCSD(T) total energy                     = -151.323014829984857
*** Psi4 exiting successfully. Buy a developer a beer!
