                               Psi4 1.3.2 release

  ==> Input File <==

--------------------------------------------------------------------------
memory 4 GB

molecule  {
0 3
O   -1.503780892634   -0.001191165859    0.000000000000
H   -0.554806399766    0.156622626007    0.000000000000
H   -1.894975262977    0.877195860101    0.000000000000
O    1.658139408570   -0.063948797302    0.000000000000
}
set {
basis aug-cc-pvtz
reference uhf
e_convergence 10
scf_type pk
freeze_core true
}

set ccenergy {
e_convergence 10
r_convergence 10
}

e = energy('ccsd(t)')

print_out('Stephenergy {}'.format(e))

--------------------------------------------------------------------------

    Molecular point group: cs

    Geometry (in Angstrom), charge = 0, multiplicity = 3:

       Center              X                  Y                   Z               Mass
    ------------   -----------------  -----------------  -----------------  -----------------
         O           -1.503780892634    -0.001191165859     0.000000000000    15.994914619570
         H           -0.554806399766     0.156622626007     0.000000000000     1.007825032230
         H           -1.894975262977     0.877195860101     0.000000000000     1.007825032230
         O            1.658139408570    -0.063948797302     0.000000000000    15.994914619570

  Charge       = 0
  Multiplicity = 3
  Basis Set: AUG-CC-PVTZ
    Blend: AUG-CC-PVTZ

    Orbital Energies [Eh]
    ---------------------

    Alpha Occupied:

       1Ap   -20.733010     2Ap   -20.558696     3Ap    -1.442343
       4Ap    -1.343072     5Ap    -0.733124     1App   -0.732739
       6Ap    -0.710505     7Ap    -0.634409     8Ap    -0.574941
       2App   -0.501927

    Alpha Virtual:

       9Ap     0.034206    10Ap     0.053480    11Ap     0.128190
       3App    0.132937    12Ap     0.148146    13Ap     0.160771
      14Ap     0.183921     4App    0.186811    15Ap     0.214135
      16Ap     0.242047    17Ap     0.264302     5App    0.286447
      18Ap     0.303993     6App    0.320697    19Ap     0.364499
      20Ap     0.406406    21Ap     0.460456    22Ap     0.568605
       7App    0.602665    23Ap     0.608738    24Ap     0.627138
      25Ap     0.682030     8App    0.709525    26Ap     0.714772
       9App    0.736684    10App    0.748628    27Ap     0.750697
      28Ap     0.811686    11App    0.826069    29Ap     0.837135
      12App    0.890957    30Ap     0.892088    31Ap     0.922881
      32Ap     0.945171    13App    0.947689    33Ap     0.951357
      14App    0.971640    34Ap     0.978958    35Ap     1.043224
      36Ap     1.135955    15App    1.153715    37Ap     1.170120
      38Ap     1.185309    39Ap     1.260708    16App    1.295318
      40Ap     1.316545    17App    1.527412    41Ap     1.587513
      18App    1.598375    42Ap     1.715834    43Ap     1.809640
      44Ap     1.842736    45Ap     1.977557    19App    1.977776
      46Ap     1.978545    20App    2.013265    47Ap     2.018069
      21App    2.048470    48Ap     2.060954    22App    2.122591
      49Ap     2.152750    50Ap     2.175994    23App    2.212736
      24App    2.302847    51Ap     2.311015    52Ap     2.338959
      53Ap     2.414894    25App    2.441444    54Ap     2.458387
      55Ap     2.490852    26App    2.526877    56Ap     2.630244
      57Ap     2.710509    27App    2.727449    58Ap     2.735600
      59Ap     2.860804    60Ap     2.933513    28App    2.943332
      61Ap     3.695957    62Ap     3.892249    29App    4.036049
      30App    4.063060    63Ap     4.074316    31App    4.178303
      64Ap     4.209687    65Ap     4.265227    32App    4.303001
      33App    4.391311    66Ap     4.408292    34App    4.430073
      67Ap     4.445622    68Ap     4.602487    69Ap     4.778926
      70Ap     4.958581    35App    5.156611    71Ap     5.171719
      72Ap     5.299151    73Ap     5.391631    36App    5.526312
      74Ap     5.692424    75Ap     6.188811    37App    6.312419
      76Ap     6.312450    38App    6.375547    77Ap     6.378263
      39App    6.518185    78Ap     6.519670    79Ap     6.559502
      80Ap     6.637250    40App    6.735961    81Ap     6.814509
      41App    6.820107    82Ap     6.921475    42App    6.936951
      83Ap     6.961458    84Ap     7.050985    43App    7.148853
      44App    7.272062    45App    7.326419    85Ap     7.327001
      86Ap     7.364253    46App    7.435186    87Ap     7.648382
      88Ap     7.947118    89Ap     7.961442    90Ap     8.811482
      91Ap     9.516974    92Ap    16.316426

    Beta Occupied:

       1Ap   -20.654226     2Ap   -20.558825     3Ap    -1.343643
       4Ap    -1.099878     5Ap    -0.709728     6Ap    -0.579886
       7Ap    -0.541190     1App   -0.501969

    Beta Virtual:

       8Ap     0.034364     2App    0.049408     9Ap     0.049654
      10Ap     0.055183    11Ap     0.143822    12Ap     0.152977
       3App    0.161205    13Ap     0.178046    14Ap     0.207817
      15Ap     0.225526     4App    0.227225    16Ap     0.250769
      17Ap     0.265550     5App    0.286655    18Ap     0.306131
       6App    0.324436    19Ap     0.368400    20Ap     0.417300
      21Ap     0.461739    22Ap     0.572181    23Ap     0.627888
       7App    0.635060    24Ap     0.640480    25Ap     0.686833
      26Ap     0.715436     8App    0.721590     9App    0.739853
      10App    0.750305    27Ap     0.767197    28Ap     0.818060
      29Ap     0.868145    11App    0.869082    30Ap     0.920078
      12App    0.941807    31Ap     0.941865    13App    0.949801
      32Ap     0.952739    33Ap     0.970225    34Ap     1.017758
      14App    1.020179    35Ap     1.045467    15App    1.156857
      36Ap     1.163918    37Ap     1.173379    38Ap     1.216342
      39Ap     1.263857    16App    1.305915    40Ap     1.325260
      17App    1.528118    41Ap     1.589749    18App    1.599818
      42Ap     1.742009    43Ap     1.815069    44Ap     1.853551
      45Ap     1.986325    46Ap     2.015738    19App    2.015749
      20App    2.053792    47Ap     2.065681    21App    2.170727
      48Ap     2.176095    22App    2.179644    49Ap     2.193875
      50Ap     2.244735    23App    2.250004    24App    2.306278
      51Ap     2.316503    52Ap     2.361680    53Ap     2.419350
      25App    2.444156    54Ap     2.459186    55Ap     2.497153
      26App    2.535312    56Ap     2.637388    57Ap     2.727540
      27App    2.728774    58Ap     2.739013    59Ap     2.862637
      60Ap     2.937956    28App    2.943956    61Ap     3.696639
      62Ap     3.894599    29App    4.039024    30App    4.146929
      63Ap     4.194345    64Ap     4.244187    31App    4.262754
      65Ap     4.276309    32App    4.303059    33App    4.391380
      66Ap     4.411883    34App    4.430739    67Ap     4.490076
      68Ap     4.605023    69Ap     4.780574    70Ap     4.960556
      35App    5.156598    71Ap     5.172011    72Ap     5.299388
      73Ap     5.392864    36App    5.526372    74Ap     5.692774
      75Ap     6.190062    76Ap     6.421269    37App    6.421274
      38App    6.450735    77Ap     6.453477    78Ap     6.534725
      39App    6.572061    79Ap     6.600330    80Ap     6.682190
      40App    6.741920    81Ap     6.923392    41App    7.005184
      82Ap     7.006836    42App    7.046224    83Ap     7.068310
      84Ap     7.130735    43App    7.151330    44App    7.272298
      45App    7.327141    85Ap     7.327301    86Ap     7.365050
      46App    7.435595    87Ap     7.649229    88Ap     7.948134
      89Ap     7.961793    90Ap     8.813018    91Ap     9.591979
      92Ap    16.316696

    Final Occupation by Irrep:
             Ap   App
    DOCC [     7,    1 ]
    SOCC [     1,    1 ]

  @UHF Final Energy:  -150.87449439967287

   => Energetics <=

    Nuclear Repulsion Energy =             22.9152769864206469
    One-Electron Energy =                -253.6254312378504778
    Two-Electron Energy =                  79.8356598517569580
    Total Energy =                       -150.8744943996728693

  UHF NO Occupations:
  HONO-2 :    7 Ap 1.9970283
  HONO-1 :    2App 1.0000000
  HONO-0 :    8 Ap 1.0000000
  LUNO+0 :    9 Ap 0.0029717
  LUNO+1 :   10 Ap 0.0017155
  LUNO+2 :   11 Ap 0.0000024
  LUNO+3 :   12 Ap 0.0000017

Computation Completed

Properties will be evaluated at   0.000000,   0.000000,   0.000000 [a0]

Properties computed using the SCF density matrix

  Nuclear Dipole Moment: [e a0]
     X:    -2.2959      Y:     0.9689      Z:     0.0000

  Electronic Dipole Moment: [e a0]
     X:     2.7572      Y:    -0.2937      Z:     0.0000

  Dipole Moment: [e a0]
     X:     0.4614      Y:     0.6752      Z:     0.0000     Total:     0.8178

  Dipole Moment: [D]
     X:     1.1726      Y:     1.7162      Z:     0.0000     Total:     2.0785

*** tstop() called on c4-4.compute.lan at Tue Mar  9 15:46:38 2021
Module time:
	user time   =      61.63 seconds =       1.03 minutes
	system time =       1.04 seconds =       0.02 minutes
	total time  =          6 seconds =       0.10 minutes
Total time:
	user time   =      61.63 seconds =       1.03 minutes
	system time =       1.04 seconds =       0.02 minutes
	total time  =          6 seconds =       0.10 minutes
 MINTS: Wrapper to libmints.
   by Justin Turney

   Calculation information:
      Number of threads:                12
      Number of atoms:                   4
      Number of AO shells:              46
      Number of SO shells:              46
      Number of primitives:             82
      Number of atomic orbitals:       160
      Number of basis functions:       138

      Number of irreps:                  2
      Integral cutoff                 0.00e+00
      Number of functions per irrep: [  92   46 ]

 OEINTS: Overlap, kinetic, potential, dipole, and quadrupole integrals
         stored in file 35.

      Computing two-electron integrals...done
      Computed 22941964 non-zero two-electron integrals.
        Stored in file 33.

*** tstart() called on c4-4.compute.lan
*** at Tue Mar  9 15:46:41 2021

	Wfn Parameters:
	--------------------
	Wavefunction         = CCSD_T
	Number of irreps     = 2
	Number of MOs        = 138
	Number of active MOs = 136
	AO-Basis             = NONE
	Semicanonical        = false
	Reference            = UHF
	Print Level          = 1

	IRREP	# MOs	# FZDC	# DOCC	# SOCC	# VIRT	# FZVR
	-----	-----	------	------	------	------	------
	 Ap	   92	    2	    5	    1	    84	    0
	 App	   46	    0	    1	    1	    44	    0
	Transforming integrals...
	IWL integrals will be deleted.
	(OO|OO)...
	Presorting SO-basis two-electron integrals.
	Sorting File: SO Ints (nn|nn) nbuckets = 1
	Transforming the one-electron integrals and constructing Fock matrices
	Starting AA/AB first half-transformation.
	Sorting AA/AB half-transformed integrals.
	Starting BB first half-transformation.
	Sorting BB half-transformed integrals.
	First half integral transformation complete.
	Starting AA second half-transformation.
	Starting AB second half-transformation.
	Starting BB second half-transformation.
	Two-electron integral transformation complete.
	(OO|OV)...
	Starting AA second half-transformation.
	Starting AB second half-transformation.
	Starting BB second half-transformation.
	Two-electron integral transformation complete.
	(OO|VV)...
	Starting AA second half-transformation.
	Starting AB second half-transformation.
	Starting BB second half-transformation.
	Two-electron integral transformation complete.
	(OV|OO)...
	Starting AA/AB first half-transformation.
	Sorting AA/AB half-transformed integrals.
	Starting BB first half-transformation.
	Sorting BB half-transformed integrals.
	First half integral transformation complete.
	Starting AA second half-transformation.
	Starting AB second half-transformation.
	Starting BB second half-transformation.
	Two-electron integral transformation complete.
	(OV|OV)...
	Starting AA second half-transformation.
	Starting AB second half-transformation.
	Starting BB second half-transformation.
	Two-electron integral transformation complete.
	(OV|VV)...
	Starting AA second half-transformation.
	Starting AB second half-transformation.
	Starting BB second half-transformation.
	Two-electron integral transformation complete.
	(VV|OO)...
	Starting AA/AB first half-transformation.
	Sorting AA/AB half-transformed integrals.
	Starting BB first half-transformation.
	Sorting BB half-transformed integrals.
	First half integral transformation complete.
	Starting AA second half-transformation.
	Starting AB second half-transformation.
	Starting BB second half-transformation.
	Two-electron integral transformation complete.
	(VV|OV)...
	Starting AA second half-transformation.
	Starting AB second half-transformation.
	Starting BB second half-transformation.
	Two-electron integral transformation complete.
	(VV|VV)...
	Starting AA second half-transformation.
	Starting AB second half-transformation.
	Starting BB second half-transformation.
	Two-electron integral transformation complete.
	Frozen core energy     =   -125.86074772366254

	Size of irrep 0 of <AB|CD> integrals:     19.643 (MW) /    157.141 (MB)
	Size of irrep 1 of <AB|CD> integrals:     13.660 (MW) /    109.283 (MB)
	Total:                                    33.303 (MW) /    266.424 (MB)

	Size of irrep 0 of <ab|cd> integrals:     20.794 (MW) /    166.349 (MB)
	Size of irrep 1 of <ab|cd> integrals:     14.631 (MW) /    117.045 (MB)
	Total:                                    35.424 (MW) /    283.394 (MB)

	Size of irrep 0 of <Ab|Cd> integrals:     83.174 (MW) /    665.395 (MB)
	Size of irrep 1 of <Ab|Cd> integrals:     56.550 (MW) /    452.403 (MB)
	Total:                                   139.725 (MW) /   1117.798 (MB)

	Size of irrep 0 of <IA|BC> integrals:      5.323 (MW) /     42.586 (MB)
	Size of irrep 1 of <IA|BC> integrals:      3.193 (MW) /     25.547 (MB)
	Total:                                     8.517 (MW) /     68.133 (MB)

	Size of irrep 0 of <ia|bc> integrals:      4.348 (MW) /     34.780 (MB)
	Size of irrep 1 of <ia|bc> integrals:      2.372 (MW) /     18.972 (MB)
	Total:                                     6.719 (MW) /     53.752 (MB)

	Size of irrep 0 of <Ia|Bc> integrals:      5.472 (MW) /     43.776 (MB)
	Size of irrep 1 of <Ia|Bc> integrals:      3.309 (MW) /     26.470 (MB)
	Total:                                     8.781 (MW) /     70.246 (MB)

	Size of irrep 0 of <iA|bC> integrals:      4.232 (MW) /     33.853 (MB)
	Size of irrep 1 of <iA|bC> integrals:      2.286 (MW) /     18.289 (MB)
	Total:                                     6.518 (MW) /     52.142 (MB)

	Size of irrep 0 of tIjAb amplitudes:       0.292 (MW) /      2.335 (MB)
	Size of irrep 1 of tIjAb amplitudes:       0.120 (MW) /      0.963 (MB)
	Total:                                     0.412 (MW) /      3.297 (MB)

	Nuclear Rep. energy          =     22.91527698642065
	SCF energy                   =   -150.87449439967287
	One-electron energy          =    -84.40869306620405
	Two-electron (AA) energy     =     10.13755699982255
	Two-electron (BB) energy     =      5.39287826910030
	Two-electron (AB) energy     =     20.94923413484933
	Two-electron energy          =     36.47966940377217
	Reference energy             =   -150.87449439967378

*** tstop() called on c4-4.compute.lan at Tue Mar  9 15:47:15 2021
Module time:
	user time   =     106.17 seconds =       1.77 minutes
	system time =      18.64 seconds =       0.31 minutes
	total time  =         34 seconds =       0.57 minutes
Total time:
	user time   =     173.83 seconds =       2.90 minutes
	system time =      20.18 seconds =       0.34 minutes
	total time  =         43 seconds =       0.72 minutes
            **************************
            *                        *
            *        CCENERGY        *
            *                        *
            **************************

    Nuclear Rep. energy (wfn)     =   22.915276986420647
    SCF energy          (wfn)     = -150.874494399672869
    Reference energy    (file100) = -150.874494399673779

    Input parameters:
    -----------------
    Wave function   =     CCSD_T
    Reference wfn   =     UHF
    Brueckner       =     No
    Memory (Mbytes) =     4000.0
    Maxiter         =     50
    R_Convergence   =     1.0e-10
    E_Convergence   =     1.0e-10
    Restart         =     Yes
    DIIS            =     Yes
    AO Basis        =     NONE
    ABCD            =     NEW
    Cache Level     =     2
    Cache Type      =     LRU
    Print Level     =     1
    Num. of threads =     12
    # Amps to Print =     10
    Print MP2 Amps? =     No
    Analyze T2 Amps =     No
    Print Pair Ener =     No
    Local CC        =     No
    SCS-MP2         =     False
    SCSN-MP2        =     False
    SCS-CCSD        =     False

MP2 correlation energy -0.4165905916371119
                Solving CC Amplitude Equations
                ------------------------------
  Iter             Energy              RMS        T1Diag      D1Diag    New D1Diag    D2Diag
  ----     ---------------------    ---------   ----------  ----------  ----------   --------
     0        -0.416590591637112    0.000e+00    0.000000    0.000000    0.000000    0.000000
     1        -0.427315983324068    5.687e-02    0.010550    0.000000    0.000000    0.000000
     2        -0.435402191998458    1.689e-02    0.011029    0.000000    0.000000    0.000000
     3        -0.437523069836301    8.572e-03    0.012900    0.000000    0.000000    0.000000
     4        -0.437397242776157    2.535e-03    0.013267    0.000000    0.000000    0.000000
     5        -0.437382792501207    1.320e-03    0.013423    0.000000    0.000000    0.000000
     6        -0.437410029768459    5.147e-04    0.013445    0.000000    0.000000    0.000000
     7        -0.437414656464190    2.645e-04    0.013440    0.000000    0.000000    0.000000
     8        -0.437415256350038    9.957e-05    0.013435    0.000000    0.000000    0.000000
     9        -0.437416626225031    7.434e-05    0.013436    0.000000    0.000000    0.000000
    10        -0.437415069155281    6.425e-05    0.013437    0.000000    0.000000    0.000000
    11        -0.437415215522606    6.141e-05    0.013439    0.000000    0.000000    0.000000
    12        -0.437414926185439    5.973e-05    0.013441    0.000000    0.000000    0.000000
    13        -0.437414917605339    5.859e-05    0.013444    0.000000    0.000000    0.000000
    14        -0.437416096699710    5.670e-05    0.013463    0.000000    0.000000    0.000000
    15        -0.437416476836760    5.013e-05    0.013536    0.000000    0.000000    0.000000
    16        -0.437416252843544    3.348e-05    0.013676    0.000000    0.000000    0.000000
    17        -0.437415906673958    1.616e-05    0.013745    0.000000    0.000000    0.000000
    18        -0.437415777175742    7.577e-06    0.013763    0.000000    0.000000    0.000000
    19        -0.437416036405134    3.350e-06    0.013767    0.000000    0.000000    0.000000
    20        -0.437416148023720    1.501e-06    0.013768    0.000000    0.000000    0.000000
    21        -0.437416155980317    5.914e-07    0.013768    0.000000    0.000000    0.000000
    22        -0.437416157255979    2.809e-07    0.013768    0.000000    0.000000    0.000000
    23        -0.437416156145183    1.458e-07    0.013768    0.000000    0.000000    0.000000
    24        -0.437416155467479    6.055e-08    0.013768    0.000000    0.000000    0.000000
    25        -0.437416156431295    3.311e-08    0.013768    0.000000    0.000000    0.000000
    26        -0.437416156890944    2.573e-08    0.013768    0.000000    0.000000    0.000000
    27        -0.437416157049913    2.411e-08    0.013768    0.000000    0.000000    0.000000
    28        -0.437416156997135    2.336e-08    0.013768    0.000000    0.000000    0.000000
    29        -0.437416156832199    2.268e-08    0.013768    0.000000    0.000000    0.000000
    30        -0.437416156564706    2.158e-08    0.013768    0.000000    0.000000    0.000000
    31        -0.437416156766128    1.824e-08    0.013768    0.000000    0.000000    0.000000
    32        -0.437416157112119    9.542e-09    0.013769    0.000000    0.000000    0.000000
    33        -0.437416157214238    4.176e-09    0.013769    0.000000    0.000000    0.000000
    34        -0.437416157266134    1.705e-09    0.013769    0.000000    0.000000    0.000000
    35        -0.437416157272820    6.703e-10    0.013769    0.000000    0.000000    0.000000
    36        -0.437416157272577    2.870e-10    0.013769    0.000000    0.000000    0.000000

      * MP2 total energy                      = -151.291084991310896
      * CCSD total energy                     = -151.311910556945662
      * CCSD(T) total energy                     = -151.324262819493640
*** Psi4 exiting successfully. Buy a developer a beer!
