                               Psi4 1.3.2 release

  ==> Input File <==

--------------------------------------------------------------------------
memory 4 GB

molecule  {
0 1
O    0.000000000000   -0.000000000000   -0.067553741000
H    0.000000000000   -0.753333404800    0.536063446000
H   -0.000000000000    0.753333404800    0.536063446000
}
set {
basis aug-cc-pvtz
reference uhf
e_convergence 10
scf_type pk
freeze_core true
}

set ccenergy {
e_convergence 10
r_convergence 10
}

e = energy('ccsd(t)')

print_out('Stephenergy {}'.format(e))

--------------------------------------------------------------------------

    Molecular point group: c2v

    Geometry (in Angstrom), charge = 0, multiplicity = 1:

       Center              X                  Y                   Z               Mass
    ------------   -----------------  -----------------  -----------------  -----------------
         O            0.000000000000     0.000000000000    -0.067553740998    15.994914619570
         H            0.000000000000    -0.753333404800     0.536063446002     1.007825032230
         H           -0.000000000000     0.753333404800     0.536063446002     1.007825032230

  Charge       = 0
  Multiplicity = 1
  Basis Set: AUG-CC-PVTZ
    Blend: AUG-CC-PVTZ

    Orbital Energies [Eh]
    ---------------------

    Alpha Occupied:

       1A1   -20.569460     2A1    -1.350830     1B2    -0.709697
       3A1    -0.587156     1B1    -0.510265

    Alpha Virtual:

       4A1     0.029216     2B2     0.047773     5A1     0.135642
       2B1     0.159226     6A1     0.175355     3B2     0.183466
       4B2     0.226248     7A1     0.244945     1A2     0.265939
       3B1     0.298252     8A1     0.309058     5B2     0.365894
       9A1     0.436452     6B2     0.465173     7B2     0.597995
      10A1     0.659626    11A1     0.706580     2A2     0.723931
       4B1     0.731612    12A1     0.830754     5B1     0.847408
      13A1     0.893631     8B2     0.911618     6B1     0.916645
       3A2     0.922570     9B2     0.931718    14A1     0.957907
      15A1     1.018935    10B2     1.041329     7B1     1.081255
      11B2     1.106411     4A2     1.176597    16A1     1.182738
      12B2     1.262810     5A2     1.508150    17A1     1.524632
       8B1     1.576280    18A1     1.809563    13B2     1.829797
      14B2     1.974244    19A1     2.115959     9B1     2.263214
       6A2     2.314283    20A1     2.329270    21A1     2.417743
      10B1     2.421373    15B2     2.444361    22A1     2.482773
      16B2     2.676684    11B1     2.697722    23A1     2.771425
      17B2     2.800544     7A2     2.881916    18B2     3.650291
      24A1     3.722982     8A2     4.021339    12B1     4.076686
      25A1     4.141655    19B2     4.248861    13B1     4.266060
      26A1     4.364237     9A2     4.374643    14B1     4.403079
      20B2     4.522325    27A1     4.725987    21B2     4.839190
      10A2     5.132435    22B2     5.160362    23B2     5.225852
      28A1     5.304889    15B1     5.514622    29A1     5.636919
      30A1     6.184488    24B2     6.506794    16B1     6.707343
      31A1     6.906865    17B1     7.124177    18B1     7.249225
      25B2     7.262741    11A2     7.305928    32A1     7.340767
      12A2     7.349685    33A1     7.514404    34A1     7.869089
      26B2     7.920098    27B2     8.789644    35A1    15.576817

    Beta Occupied:

       1A1   -20.569460     2A1    -1.350830     1B2    -0.709697
       3A1    -0.587156     1B1    -0.510265

    Beta Virtual:

       4A1     0.029216     2B2     0.047773     5A1     0.135642
       2B1     0.159226     6A1     0.175355     3B2     0.183466
       4B2     0.226248     7A1     0.244945     1A2     0.265939
       3B1     0.298252     8A1     0.309058     5B2     0.365894
       9A1     0.436452     6B2     0.465173     7B2     0.597995
      10A1     0.659626    11A1     0.706580     2A2     0.723931
       4B1     0.731612    12A1     0.830754     5B1     0.847408
      13A1     0.893631     8B2     0.911618     6B1     0.916645
       3A2     0.922570     9B2     0.931718    14A1     0.957907
      15A1     1.018935    10B2     1.041329     7B1     1.081255
      11B2     1.106411     4A2     1.176597    16A1     1.182738
      12B2     1.262810     5A2     1.508150    17A1     1.524632
       8B1     1.576280    18A1     1.809563    13B2     1.829797
      14B2     1.974244    19A1     2.115959     9B1     2.263214
       6A2     2.314283    20A1     2.329270    21A1     2.417743
      10B1     2.421373    15B2     2.444361    22A1     2.482773
      16B2     2.676684    11B1     2.697722    23A1     2.771425
      17B2     2.800544     7A2     2.881916    18B2     3.650291
      24A1     3.722982     8A2     4.021339    12B1     4.076686
      25A1     4.141655    19B2     4.248861    13B1     4.266060
      26A1     4.364237     9A2     4.374643    14B1     4.403079
      20B2     4.522325    27A1     4.725987    21B2     4.839190
      10A2     5.132435    22B2     5.160362    23B2     5.225852
      28A1     5.304889    15B1     5.514622    29A1     5.636919
      30A1     6.184488    24B2     6.506794    16B1     6.707343
      31A1     6.906865    17B1     7.124177    18B1     7.249225
      25B2     7.262741    11A2     7.305928    32A1     7.340767
      12A2     7.349685    33A1     7.514404    34A1     7.869089
      26B2     7.920098    27B2     8.789644    35A1    15.576817

    Final Occupation by Irrep:
             A1    A2    B1    B2
    DOCC [     3,    0,    1,    1 ]
    SOCC [     0,    0,    0,    0 ]

  @UHF Final Energy:   -76.05976486916154

   => Energetics <=

    Nuclear Repulsion Energy =              9.1221333259412027
    One-Electron Energy =                -122.9089803271013466
    Two-Electron Energy =                  37.7270821319985927
    Total Energy =                        -76.0597648691615404

  UHF NO Occupations:
  HONO-2 :    1 B1 2.0000000
  HONO-1 :    1 B2 2.0000000
  HONO-0 :    3 A1 2.0000000
  LUNO+0 :    4 A1 0.0000000
  LUNO+1 :    5 A1 0.0000000
  LUNO+2 :    2 B2 0.0000000
  LUNO+3 :    6 A1 0.0000000

Computation Completed

Properties will be evaluated at   0.000000,   0.000000,   0.000000 [a0]

Properties computed using the SCF density matrix

  Nuclear Dipole Moment: [e a0]
     X:     0.0000      Y:     0.0000      Z:     1.0048

  Electronic Dipole Moment: [e a0]
     X:     0.0000      Y:     0.0000      Z:    -0.2098

  Dipole Moment: [e a0]
     X:     0.0000      Y:     0.0000      Z:     0.7950     Total:     0.7950

  Dipole Moment: [D]
     X:     0.0000      Y:     0.0000      Z:     2.0207     Total:     2.0207

*** tstop() called on c2-13.compute.lan at Mon Mar  8 09:41:21 2021
Module time:
	user time   =      17.01 seconds =       0.28 minutes
	system time =       0.95 seconds =       0.02 minutes
	total time  =          2 seconds =       0.03 minutes
Total time:
	user time   =      17.01 seconds =       0.28 minutes
	system time =       0.95 seconds =       0.02 minutes
	total time  =          2 seconds =       0.03 minutes
 MINTS: Wrapper to libmints.
   by Justin Turney

   Calculation information:
      Number of threads:                12
      Number of atoms:                   3
      Number of AO shells:              32
      Number of SO shells:              23
      Number of primitives:             52
      Number of atomic orbitals:       105
      Number of basis functions:        92

      Number of irreps:                  4
      Integral cutoff                 0.00e+00
      Number of functions per irrep: [  35   12   18   27 ]

 OEINTS: Overlap, kinetic, potential, dipole, and quadrupole integrals
         stored in file 35.

      Computing two-electron integrals...done
      Computed 2208309 non-zero two-electron integrals.
        Stored in file 33.

*** tstart() called on c2-13.compute.lan
*** at Mon Mar  8 09:41:22 2021

	Wfn Parameters:
	--------------------
	Wavefunction         = CCSD_T
	Number of irreps     = 4
	Number of MOs        = 92
	Number of active MOs = 91
	AO-Basis             = NONE
	Semicanonical        = false
	Reference            = UHF
	Print Level          = 1

	IRREP	# MOs	# FZDC	# DOCC	# SOCC	# VIRT	# FZVR
	-----	-----	------	------	------	------	------
	 A1	   35	    1	    2	    0	    32	    0
	 A2	   12	    0	    0	    0	    12	    0
	 B1	   18	    0	    1	    0	    17	    0
	 B2	   27	    0	    1	    0	    26	    0
	Transforming integrals...
	IWL integrals will be deleted.
	(OO|OO)...
	Presorting SO-basis two-electron integrals.
	Sorting File: SO Ints (nn|nn) nbuckets = 1
	Transforming the one-electron integrals and constructing Fock matrices
	Starting AA/AB first half-transformation.
	Sorting AA/AB half-transformed integrals.
	Starting BB first half-transformation.
	Sorting BB half-transformed integrals.
	First half integral transformation complete.
	Starting AA second half-transformation.
	Starting AB second half-transformation.
	Starting BB second half-transformation.
	Two-electron integral transformation complete.
	(OO|OV)...
	Starting AA second half-transformation.
	Starting AB second half-transformation.
	Starting BB second half-transformation.
	Two-electron integral transformation complete.
	(OO|VV)...
	Starting AA second half-transformation.
	Starting AB second half-transformation.
	Starting BB second half-transformation.
	Two-electron integral transformation complete.
	(OV|OO)...
	Starting AA/AB first half-transformation.
	Sorting AA/AB half-transformed integrals.
	Starting BB first half-transformation.
	Sorting BB half-transformed integrals.
	First half integral transformation complete.
	Starting AA second half-transformation.
	Starting AB second half-transformation.
	Starting BB second half-transformation.
	Two-electron integral transformation complete.
	(OV|OV)...
	Starting AA second half-transformation.
	Starting AB second half-transformation.
	Starting BB second half-transformation.
	Two-electron integral transformation complete.
	(OV|VV)...
	Starting AA second half-transformation.
	Starting AB second half-transformation.
	Starting BB second half-transformation.
	Two-electron integral transformation complete.
	(VV|OO)...
	Starting AA/AB first half-transformation.
	Sorting AA/AB half-transformed integrals.
	Starting BB first half-transformation.
	Sorting BB half-transformed integrals.
	First half integral transformation complete.
	Starting AA second half-transformation.
	Starting AB second half-transformation.
	Starting BB second half-transformation.
	Two-electron integral transformation complete.
	(VV|OV)...
	Starting AA second half-transformation.
	Starting AB second half-transformation.
	Starting BB second half-transformation.
	Two-electron integral transformation complete.
	(VV|VV)...
	Starting AA second half-transformation.
	Starting AB second half-transformation.
	Starting BB second half-transformation.
	Two-electron integral transformation complete.
	Frozen core energy     =    -61.29820399058584

	Size of irrep 0 of <AB|CD> integrals:      1.047 (MW) /      8.372 (MB)
	Size of irrep 1 of <AB|CD> integrals:      0.682 (MW) /      5.458 (MB)
	Size of irrep 2 of <AB|CD> integrals:      0.733 (MW) /      5.862 (MB)
	Size of irrep 3 of <AB|CD> integrals:      1.073 (MW) /      8.586 (MB)
	Total:                                     3.535 (MW) /     28.279 (MB)

	Size of irrep 0 of <ab|cd> integrals:      1.047 (MW) /      8.372 (MB)
	Size of irrep 1 of <ab|cd> integrals:      0.682 (MW) /      5.458 (MB)
	Size of irrep 2 of <ab|cd> integrals:      0.733 (MW) /      5.862 (MB)
	Size of irrep 3 of <ab|cd> integrals:      1.073 (MW) /      8.586 (MB)
	Total:                                     3.535 (MW) /     28.279 (MB)

	Size of irrep 0 of <Ab|Cd> integrals:      4.550 (MW) /     36.398 (MB)
	Size of irrep 1 of <Ab|Cd> integrals:      2.729 (MW) /     21.833 (MB)
	Size of irrep 2 of <Ab|Cd> integrals:      2.931 (MW) /     23.448 (MB)
	Size of irrep 3 of <Ab|Cd> integrals:      4.293 (MW) /     34.345 (MB)
	Total:                                    14.503 (MW) /    116.023 (MB)

	Size of irrep 0 of <IA|BC> integrals:      0.228 (MW) /      1.826 (MB)
	Size of irrep 1 of <IA|BC> integrals:      0.111 (MW) /      0.885 (MB)
	Size of irrep 2 of <IA|BC> integrals:      0.134 (MW) /      1.068 (MB)
	Size of irrep 3 of <IA|BC> integrals:      0.199 (MW) /      1.591 (MB)
	Total:                                     0.671 (MW) /      5.371 (MB)

	Size of irrep 0 of <ia|bc> integrals:      0.228 (MW) /      1.826 (MB)
	Size of irrep 1 of <ia|bc> integrals:      0.111 (MW) /      0.885 (MB)
	Size of irrep 2 of <ia|bc> integrals:      0.134 (MW) /      1.068 (MB)
	Size of irrep 3 of <ia|bc> integrals:      0.199 (MW) /      1.591 (MB)
	Total:                                     0.671 (MW) /      5.371 (MB)

	Size of irrep 0 of <Ia|Bc> integrals:      0.228 (MW) /      1.826 (MB)
	Size of irrep 1 of <Ia|Bc> integrals:      0.111 (MW) /      0.885 (MB)
	Size of irrep 2 of <Ia|Bc> integrals:      0.134 (MW) /      1.068 (MB)
	Size of irrep 3 of <Ia|Bc> integrals:      0.199 (MW) /      1.591 (MB)
	Total:                                     0.671 (MW) /      5.371 (MB)

	Size of irrep 0 of <iA|bC> integrals:      0.228 (MW) /      1.826 (MB)
	Size of irrep 1 of <iA|bC> integrals:      0.111 (MW) /      0.885 (MB)
	Size of irrep 2 of <iA|bC> integrals:      0.134 (MW) /      1.068 (MB)
	Size of irrep 3 of <iA|bC> integrals:      0.199 (MW) /      1.591 (MB)
	Total:                                     0.671 (MW) /      5.371 (MB)

	Size of irrep 0 of tIjAb amplitudes:       0.013 (MW) /      0.102 (MB)
	Size of irrep 1 of tIjAb amplitudes:       0.003 (MW) /      0.026 (MB)
	Size of irrep 2 of tIjAb amplitudes:       0.007 (MW) /      0.055 (MB)
	Size of irrep 3 of tIjAb amplitudes:       0.008 (MW) /      0.066 (MB)
	Total:                                     0.031 (MW) /      0.250 (MB)

	Nuclear Rep. energy          =      9.12213332594120
	SCF energy                   =    -76.05976486916154
	One-electron energy          =    -41.45149241766278
	Two-electron (AA) energy     =      3.41496732100327
	Two-electron (BB) energy     =      3.41496732100327
	Two-electron (AB) energy     =     10.73786357113917
	Two-electron energy          =     17.56779821314571
	Reference energy             =    -76.05976486916171

*** tstop() called on c2-13.compute.lan at Mon Mar  8 09:41:43 2021
Module time:
	user time   =     181.15 seconds =       3.02 minutes
	system time =      10.93 seconds =       0.18 minutes
	total time  =         21 seconds =       0.35 minutes
Total time:
	user time   =     202.09 seconds =       3.37 minutes
	system time =      12.20 seconds =       0.20 minutes
	total time  =         24 seconds =       0.40 minutes
            **************************
            *                        *
            *        CCENERGY        *
            *                        *
            **************************

    Nuclear Rep. energy (wfn)     =    9.122133325941203
    SCF energy          (wfn)     =  -76.059764869161540
    Reference energy    (file100) =  -76.059764869161711

    Input parameters:
    -----------------
    Wave function   =     CCSD_T
    Reference wfn   =     UHF
    Brueckner       =     No
    Memory (Mbytes) =     4000.0
    Maxiter         =     50
    R_Convergence   =     1.0e-10
    E_Convergence   =     1.0e-10
    Restart         =     Yes
    DIIS            =     Yes
    AO Basis        =     NONE
    ABCD            =     NEW
    Cache Level     =     2
    Cache Type      =     LRU
    Print Level     =     1
    Num. of threads =     12
    # Amps to Print =     10
    Print MP2 Amps? =     No
    Analyze T2 Amps =     No
    Print Pair Ener =     No
    Local CC        =     No
    SCS-MP2         =     False
    SCSN-MP2        =     False
    SCS-CCSD        =     False

MP2 correlation energy -0.2691546981774206
                Solving CC Amplitude Equations
                ------------------------------
  Iter             Energy              RMS        T1Diag      D1Diag    New D1Diag    D2Diag
  ----     ---------------------    ---------   ----------  ----------  ----------   --------
     0        -0.269154698177421    0.000e+00    0.000000    0.000000    0.000000    0.000000
     1        -0.267519097571236    4.805e-02    0.012194    0.000000    0.000000    0.000000
     2        -0.272650650946762    1.328e-02    0.011967    0.000000    0.000000    0.000000
     3        -0.273886511316391    6.246e-03    0.013845    0.000000    0.000000    0.000000
     4        -0.273781045809200    1.259e-03    0.014172    0.000000    0.000000    0.000000
     5        -0.273764726133582    4.635e-04    0.014305    0.000000    0.000000    0.000000
     6        -0.273765577864266    1.154e-04    0.014336    0.000000    0.000000    0.000000
     7        -0.273764332729313    3.907e-05    0.014342    0.000000    0.000000    0.000000
     8        -0.273764376353292    1.068e-05    0.014344    0.000000    0.000000    0.000000
     9        -0.273764420015972    3.253e-06    0.014344    0.000000    0.000000    0.000000
    10        -0.273764298864759    1.303e-06    0.014344    0.000000    0.000000    0.000000
    11        -0.273764315965949    4.473e-07    0.014344    0.000000    0.000000    0.000000
    12        -0.273764310698942    1.692e-07    0.014344    0.000000    0.000000    0.000000
    13        -0.273764312454124    5.022e-08    0.014344    0.000000    0.000000    0.000000
    14        -0.273764313646403    1.330e-08    0.014344    0.000000    0.000000    0.000000
    15        -0.273764313700381    4.022e-09    0.014344    0.000000    0.000000    0.000000
    16        -0.273764313705468    1.221e-09    0.014344    0.000000    0.000000    0.000000
    17        -0.273764313715341    4.182e-10    0.014344    0.000000    0.000000    0.000000
    18        -0.273764313712702    1.090e-10    0.014344    0.000000    0.000000    0.000000
    19        -0.273764313712459    3.292e-11    0.014344    0.000000    0.000000    0.000000

    Iterations converged.

    Largest TIA Amplitudes:
              2  44        -0.0152700962
              2  45        -0.0131835068
              1   1         0.0084796279
              1   4        -0.0077085394
              3  73         0.0054662850
              2  54         0.0042881388
              3  69         0.0038405348
              3  80         0.0036677085
              2  47        -0.0036523097
              1  23         0.0034037668

    Largest Tia Amplitudes:
              2  44        -0.0152700962
              2  45        -0.0131835068
              1   1         0.0084796279
              1   4        -0.0077085394
              3  73         0.0054662850
              2  54         0.0042881388
              3  69         0.0038405348
              3  80         0.0036677085
              2  47        -0.0036523097
              1  23         0.0034037668

    Largest TIJAB Amplitudes:
      2   1  46   7        -0.0095990852
      3   1  66   6        -0.0094005626

      * MP2 total energy                      =  -76.328919567339128
      * CCSD total energy                     =  -76.333529182874173
      * CCSD(T) total energy                     =  -76.342249200264646
*** Psi4 exiting successfully. Buy a developer a beer!
