                               Psi4 1.3.2 release

  ==> Input File <==

--------------------------------------------------------------------------
memory 4 GB

molecule  {
0 3
O    0.000000000000    0.000000000000   -1.647451218590
H    0.000000000000   -0.754282819600   -1.052776121408
H   -0.000000000000    0.754282819600   -1.052776121408
O    0.000000000000    0.000000000000    1.780120151651
}
set {
basis aug-cc-pvtz
reference uhf
e_convergence 10
scf_type pk
freeze_core true
}

set ccenergy {
e_convergence 10
r_convergence 10
}

e = energy('ccsd(t)')

print_out('Stephenergy {}'.format(e))

--------------------------------------------------------------------------

    Molecular point group: c2v

    Geometry (in Angstrom), charge = 0, multiplicity = 3:

       Center              X                  Y                   Z               Mass
    ------------   -----------------  -----------------  -----------------  -----------------
         O           -0.000000000000     0.000000000000    -1.647451218590    15.994914619570
         H            0.000000000000    -0.754282819600    -1.052776121408     1.007825032230
         H           -0.000000000000     0.754282819600    -1.052776121408     1.007825032230
         O           -0.000000000000     0.000000000000     1.780120151651    15.994914619570

  Charge       = 0
  Multiplicity = 3
  Basis Set: AUG-CC-PVTZ
    Blend: AUG-CC-PVTZ

    Orbital Energies [Eh]
    ---------------------

    Alpha Occupied:

       1A1   -20.728871     2A1   -20.562776     3A1    -1.437851
       4A1    -1.347462     1B2    -0.729266     1B1    -0.728880
       2B2    -0.709015     5A1    -0.632165     6A1    -0.580119
       2B1    -0.505416

    Alpha Virtual:

       7A1     0.035496     3B2     0.048536     3B1     0.132106
       8A1     0.134751     9A1     0.148062     4B2     0.158032
       4B1     0.181073     5B2     0.184924    10A1     0.189277
      11A1     0.250199     6B2     0.257647     1A2     0.266028
      12A1     0.273404     5B1     0.319832    13A1     0.367651
       7B2     0.382377    14A1     0.454294     8B2     0.471943
       2A2     0.609119     9B2     0.615925    15A1     0.618131
      16A1     0.619512     6B1     0.640448    17A1     0.717697
       3A2     0.730918    10B2     0.735670     7B1     0.741992
      18A1     0.800576    19A1     0.838310     8B1     0.841054
      11B2     0.854195     9B1     0.915184    20A1     0.925307
       4A2     0.934084    12B2     0.941917    21A1     0.958696
      10B1     0.960435    13B2     0.962059    22A1     1.049026
      14B2     1.054554    11B1     1.123038     5A2     1.185823
      23A1     1.186376    15B2     1.254809    24A1     1.262036
      16B2     1.274668    25A1     1.346016     6A2     1.511975
      12B1     1.592815    26A1     1.631200    27A1     1.827534
      17B2     1.829408    18B2     1.973030    13B1     1.978658
      19B2     1.990273    28A1     2.005464     7A2     2.011055
      14B1     2.026100    29A1     2.036354     8A2     2.039626
      20B2     2.081090    30A1     2.086048    15B1     2.119484
      31A1     2.145793    21B2     2.260089    16B1     2.278814
       9A2     2.329597    32A1     2.336510    33A1     2.402370
      34A1     2.488107    22B2     2.491718    17B1     2.505079
      35A1     2.575038    23B2     2.688857    18B1     2.718474
      36A1     2.820516    10A2     2.889356    24B2     2.902486
      25B2     3.668410    37A1     3.755532    11A2     4.031388
      19B1     4.050751    26B2     4.084384    20B1     4.102668
      38A1     4.148911    27B2     4.278542    21B1     4.285535
      39A1     4.367737    12A2     4.383701    40A1     4.406150
      22B1     4.417268    28B2     4.530378    41A1     4.749844
      29B2     4.854941    13A2     5.153138    30B2     5.164703
      31B2     5.254920    42A1     5.373566    23B1     5.530745
      43A1     5.678324    44A1     6.200247    24B1     6.315230
      32B2     6.316057    14A2     6.370007    45A1     6.375196
      25B1     6.402022    33B2     6.449896    46A1     6.479700
      34B2     6.528171    26B1     6.737492    15A2     6.819174
      47A1     6.820608    27B1     6.927242    48A1     6.930963
      35B2     6.956758    49A1     7.033045    28B1     7.137153
      29B1     7.261501    16A2     7.320256    36B2     7.347811
      50A1     7.356780    17A2     7.358927    51A1     7.550930
      52A1     7.903194    37B2     7.939733    53A1     8.528970
      38B2     8.817749    54A1    15.763180

    Beta Occupied:

       1A1   -20.650306     2A1   -20.562814     3A1    -1.347634
       4A1    -1.095551     1B2    -0.709158     5A1    -0.584187
       6A1    -0.538469     1B1    -0.505407

    Beta Virtual:

       2B2     0.035429     7A1     0.036612     2B1     0.049955
       3B2     0.069586     8A1     0.140914     9A1     0.150642
       3B1     0.160358     4B2     0.180854    10A1     0.189596
       5B2     0.221930     4B1     0.225325    11A1     0.259186
       6B2     0.263213     1A2     0.266340    12A1     0.274856
       5B1     0.320472    13A1     0.371034     7B2     0.387415
      14A1     0.455418     8B2     0.472462     9B2     0.618377
      15A1     0.620507     2A2     0.641348    16A1     0.651300
       6B1     0.652549    17A1     0.719039     3A2     0.732349
       7B1     0.743983    10B2     0.747078    18A1     0.809045
      19A1     0.851412     8B1     0.912187     9B1     0.930445
      20A1     0.930659     4A2     0.935474    11B2     0.940311
      12B2     0.944488    21A1     0.959621    13B2     1.009776
      10B1     1.024928    22A1     1.049601    14B2     1.057218
      11B1     1.128026     5A2     1.186522    23A1     1.190474
      15B2     1.268367    16B2     1.277834    24A1     1.280598
      25A1     1.403888     6A2     1.512080    12B1     1.592915
      26A1     1.643677    27A1     1.828646    17B2     1.830635
      18B2     1.980794    13B1     2.016757    19B2     2.021469
      28A1     2.030771     7A2     2.041389    14B1     2.046289
      29A1     2.099923    20B2     2.124812    30A1     2.155337
       8A2     2.182398    15B1     2.188829    31A1     2.195162
      16B1     2.283034    21B2     2.306137     9A2     2.332518
      32A1     2.357220    33A1     2.413387    34A1     2.492301
      22B2     2.496330    17B1     2.509728    35A1     2.578053
      23B2     2.689020    18B1     2.718562    36A1     2.820820
      10A2     2.889377    24B2     2.904505    25B2     3.668445
      37A1     3.755673    11A2     4.031474    19B1     4.102054
      38A1     4.163803    20B1     4.223527    26B2     4.241215
      21B1     4.285557    27B2     4.291941    12A2     4.383748
      39A1     4.392422    40A1     4.414089    22B1     4.417449
      28B2     4.530578    41A1     4.749985    29B2     4.855029
      13A2     5.153155    30B2     5.164709    31B2     5.254942
      42A1     5.374014    23B1     5.530749    43A1     5.678656
      44A1     6.201917    24B1     6.424079    32B2     6.424764
      14A2     6.446669    45A1     6.450257    25B1     6.457332
      33B2     6.494786    46A1     6.528528    34B2     6.539925
      26B1     6.743868    47A1     6.930987    15A2     7.008200
      48A1     7.010011    27B1     7.034677    35B2     7.065875
      49A1     7.114017    28B1     7.137434    29B1     7.261457
      16A2     7.320302    36B2     7.349817    50A1     7.357449
      17A2     7.358981    51A1     7.551628    52A1     7.903425
      37B2     7.939717    53A1     8.614113    38B2     8.817689
      54A1    15.763174

    Final Occupation by Irrep:
             A1    A2    B1    B2
    DOCC [     6,    0,    1,    1 ]
    SOCC [     0,    0,    1,    1 ]

  @UHF Final Energy:  -150.87369152759848

   => Energetics <=

    Nuclear Repulsion Energy =             21.9347016572431173
    One-Electron Energy =                -251.6614378602993725
    Two-Electron Energy =                  78.8530446754577667
    Total Energy =                       -150.8736915275984813

  UHF NO Occupations:
  HONO-2 :    6 A1 1.9970744
  HONO-1 :    2 B1 1.0000000
  HONO-0 :    2 B2 1.0000000
  LUNO+0 :    7 A1 0.0029256
  LUNO+1 :    8 A1 0.0016872
  LUNO+2 :    9 A1 0.0000024
  LUNO+3 :   10 A1 0.0000004

Computation Completed

Properties will be evaluated at   0.000000,   0.000000,   0.000000 [a0]

Properties computed using the SCF density matrix

  Nuclear Dipole Moment: [e a0]
     X:    -0.0000      Y:     0.0000      Z:    -1.9733

  Electronic Dipole Moment: [e a0]
     X:     0.0000      Y:     0.0000      Z:     2.8049

  Dipole Moment: [e a0]
     X:    -0.0000      Y:     0.0000      Z:     0.8316     Total:     0.8316

  Dipole Moment: [D]
     X:    -0.0000      Y:     0.0000      Z:     2.1137     Total:     2.1137

*** tstop() called on c4-2.compute.lan at Wed Mar 10 09:52:06 2021
Module time:
	user time   =      38.02 seconds =       0.63 minutes
	system time =       1.29 seconds =       0.02 minutes
	total time  =          6 seconds =       0.10 minutes
Total time:
	user time   =      38.02 seconds =       0.63 minutes
	system time =       1.29 seconds =       0.02 minutes
	total time  =          6 seconds =       0.10 minutes
 MINTS: Wrapper to libmints.
   by Justin Turney

   Calculation information:
      Number of threads:                12
      Number of atoms:                   4
      Number of AO shells:              46
      Number of SO shells:              37
      Number of primitives:             82
      Number of atomic orbitals:       160
      Number of basis functions:       138

      Number of irreps:                  4
      Integral cutoff                 0.00e+00
      Number of functions per irrep: [  54   17   29   38 ]

 OEINTS: Overlap, kinetic, potential, dipole, and quadrupole integrals
         stored in file 35.

      Computing two-electron integrals...done
      Computed 11531920 non-zero two-electron integrals.
        Stored in file 33.

*** tstart() called on c4-2.compute.lan
*** at Wed Mar 10 09:52:08 2021

	Wfn Parameters:
	--------------------
	Wavefunction         = CCSD_T
	Number of irreps     = 4
	Number of MOs        = 138
	Number of active MOs = 136
	AO-Basis             = NONE
	Semicanonical        = false
	Reference            = UHF
	Print Level          = 1

	IRREP	# MOs	# FZDC	# DOCC	# SOCC	# VIRT	# FZVR
	-----	-----	------	------	------	------	------
	 A1	   54	    2	    4	    0	    48	    0
	 A2	   17	    0	    0	    0	    17	    0
	 B1	   29	    0	    1	    1	    27	    0
	 B2	   38	    0	    1	    1	    36	    0
	Transforming integrals...
	IWL integrals will be deleted.
	(OO|OO)...
	Presorting SO-basis two-electron integrals.
	Sorting File: SO Ints (nn|nn) nbuckets = 1
	Transforming the one-electron integrals and constructing Fock matrices
	Starting AA/AB first half-transformation.
	Sorting AA/AB half-transformed integrals.
	Starting BB first half-transformation.
	Sorting BB half-transformed integrals.
	First half integral transformation complete.
	Starting AA second half-transformation.
	Starting AB second half-transformation.
	Starting BB second half-transformation.
	Two-electron integral transformation complete.
	(OO|OV)...
	Starting AA second half-transformation.
	Starting AB second half-transformation.
	Starting BB second half-transformation.
	Two-electron integral transformation complete.
	(OO|VV)...
	Starting AA second half-transformation.
	Starting AB second half-transformation.
	Starting BB second half-transformation.
	Two-electron integral transformation complete.
	(OV|OO)...
	Starting AA/AB first half-transformation.
	Sorting AA/AB half-transformed integrals.
	Starting BB first half-transformation.
	Sorting BB half-transformed integrals.
	First half integral transformation complete.
	Starting AA second half-transformation.
	Starting AB second half-transformation.
	Starting BB second half-transformation.
	Two-electron integral transformation complete.
	(OV|OV)...
	Starting AA second half-transformation.
	Starting AB second half-transformation.
	Starting BB second half-transformation.
	Two-electron integral transformation complete.
	(OV|VV)...
	Starting AA second half-transformation.
	Starting AB second half-transformation.
	Starting BB second half-transformation.
	Two-electron integral transformation complete.
	(VV|OO)...
	Starting AA/AB first half-transformation.
	Sorting AA/AB half-transformed integrals.
	Starting BB first half-transformation.
	Sorting BB half-transformed integrals.
	First half integral transformation complete.
	Starting AA second half-transformation.
	Starting AB second half-transformation.
	Starting BB second half-transformation.
	Two-electron integral transformation complete.
	(VV|OV)...
	Starting AA second half-transformation.
	Starting AB second half-transformation.
	Starting BB second half-transformation.
	Two-electron integral transformation complete.
	(VV|VV)...
	Starting AA second half-transformation.
	Starting AB second half-transformation.
	Starting BB second half-transformation.
	Two-electron integral transformation complete.
	Frozen core energy     =   -125.45964546537481

	Size of irrep 0 of <AB|CD> integrals:      5.040 (MW) /     40.320 (MB)
	Size of irrep 1 of <AB|CD> integrals:      3.197 (MW) /     25.576 (MB)
	Size of irrep 2 of <AB|CD> integrals:      3.640 (MW) /     29.124 (MB)
	Size of irrep 3 of <AB|CD> integrals:      4.783 (MW) /     38.264 (MB)
	Total:                                    16.660 (MW) /    133.283 (MB)

	Size of irrep 0 of <ab|cd> integrals:      5.327 (MW) /     42.615 (MB)
	Size of irrep 1 of <ab|cd> integrals:      3.430 (MW) /     27.439 (MB)
	Size of irrep 2 of <ab|cd> integrals:      3.893 (MW) /     31.142 (MB)
	Size of irrep 3 of <ab|cd> integrals:      5.072 (MW) /     40.572 (MB)
	Total:                                    17.721 (MW) /    141.768 (MB)

	Size of irrep 0 of <Ab|Cd> integrals:     21.912 (MW) /    175.294 (MB)
	Size of irrep 1 of <Ab|Cd> integrals:     13.242 (MW) /    105.939 (MB)
	Size of irrep 2 of <Ab|Cd> integrals:     15.062 (MW) /    120.497 (MB)
	Size of irrep 3 of <Ab|Cd> integrals:     19.705 (MW) /    157.638 (MB)
	Total:                                    69.921 (MW) /    559.368 (MB)

	Size of irrep 0 of <IA|BC> integrals:      1.469 (MW) /     11.748 (MB)
	Size of irrep 1 of <IA|BC> integrals:      0.694 (MW) /      5.550 (MB)
	Size of irrep 2 of <IA|BC> integrals:      0.908 (MW) /      7.266 (MB)
	Size of irrep 3 of <IA|BC> integrals:      1.198 (MW) /      9.588 (MB)
	Total:                                     4.269 (MW) /     34.152 (MB)

	Size of irrep 0 of <ia|bc> integrals:      1.220 (MW) /      9.758 (MB)
	Size of irrep 1 of <ia|bc> integrals:      0.493 (MW) /      3.941 (MB)
	Size of irrep 2 of <ia|bc> integrals:      0.698 (MW) /      5.588 (MB)
	Size of irrep 3 of <ia|bc> integrals:      0.959 (MW) /      7.675 (MB)
	Total:                                     3.370 (MW) /     26.961 (MB)

	Size of irrep 0 of <Ia|Bc> integrals:      1.507 (MW) /     12.058 (MB)
	Size of irrep 1 of <Ia|Bc> integrals:      0.721 (MW) /      5.764 (MB)
	Size of irrep 2 of <Ia|Bc> integrals:      0.939 (MW) /      7.514 (MB)
	Size of irrep 3 of <Ia|Bc> integrals:      1.234 (MW) /      9.872 (MB)
	Total:                                     4.401 (MW) /     35.208 (MB)

	Size of irrep 0 of <iA|bC> integrals:      1.194 (MW) /      9.549 (MB)
	Size of irrep 1 of <iA|bC> integrals:      0.477 (MW) /      3.814 (MB)
	Size of irrep 2 of <iA|bC> integrals:      0.671 (MW) /      5.371 (MB)
	Size of irrep 3 of <iA|bC> integrals:      0.928 (MW) /      7.422 (MB)
	Total:                                     3.270 (MW) /     26.156 (MB)

	Size of irrep 0 of tIjAb amplitudes:       0.094 (MW) /      0.749 (MB)
	Size of irrep 1 of tIjAb amplitudes:       0.015 (MW) /      0.116 (MB)
	Size of irrep 2 of tIjAb amplitudes:       0.047 (MW) /      0.373 (MB)
	Size of irrep 3 of tIjAb amplitudes:       0.053 (MW) /      0.426 (MB)
	Total:                                     0.208 (MW) /      1.664 (MB)

	Nuclear Rep. energy          =     21.93470165724312
	SCF energy                   =   -150.87369152759848
	One-electron energy          =    -83.24691350874278
	Two-electron (AA) energy     =      9.94561747453950
	Two-electron (BB) energy     =      5.29311826466283
	Two-electron (AB) energy     =     20.65943005007227
	Two-electron energy          =     35.89816578927460
	Reference energy             =   -150.87369152759987

*** tstop() called on c4-2.compute.lan at Wed Mar 10 09:52:33 2021
Module time:
	user time   =      62.14 seconds =       1.04 minutes
	system time =      11.78 seconds =       0.20 minutes
	total time  =         25 seconds =       0.42 minutes
Total time:
	user time   =     104.12 seconds =       1.74 minutes
	system time =      13.38 seconds =       0.22 minutes
	total time  =         33 seconds =       0.55 minutes
            **************************
            *                        *
            *        CCENERGY        *
            *                        *
            **************************

    Nuclear Rep. energy (wfn)     =   21.934701657243117
    SCF energy          (wfn)     = -150.873691527598481
    Reference energy    (file100) = -150.873691527599874

    Input parameters:
    -----------------
    Wave function   =     CCSD_T
    Reference wfn   =     UHF
    Brueckner       =     No
    Memory (Mbytes) =     4000.0
    Maxiter         =     50
    R_Convergence   =     1.0e-10
    E_Convergence   =     1.0e-10
    Restart         =     Yes
    DIIS            =     Yes
    AO Basis        =     NONE
    ABCD            =     NEW
    Cache Level     =     2
    Cache Type      =     LRU
    Print Level     =     1
    Num. of threads =     12
    # Amps to Print =     10
    Print MP2 Amps? =     No
    Analyze T2 Amps =     No
    Print Pair Ener =     No
    Local CC        =     No
    SCS-MP2         =     False
    SCSN-MP2        =     False
    SCS-CCSD        =     False

MP2 correlation energy -0.4156242190384395
                Solving CC Amplitude Equations
                ------------------------------
  Iter             Energy              RMS        T1Diag      D1Diag    New D1Diag    D2Diag
  ----     ---------------------    ---------   ----------  ----------  ----------   --------
     0        -0.415624219038439    0.000e+00    0.000000    0.000000    0.000000    0.000000
     1        -0.426507324389395    5.632e-02    0.010348    0.000000    0.000000    0.000000
     2        -0.434585639391016    1.676e-02    0.010851    0.000000    0.000000    0.000000
     3        -0.436679736154971    8.394e-03    0.012663    0.000000    0.000000    0.000000
     4        -0.436555871841161    2.490e-03    0.013006    0.000000    0.000000    0.000000
     5        -0.436543903401653    1.257e-03    0.013148    0.000000    0.000000    0.000000
     6        -0.436569372890238    4.978e-04    0.013161    0.000000    0.000000    0.000000
     7        -0.436573486697619    2.239e-04    0.013151    0.000000    0.000000    0.000000
     8        -0.436574231561000    6.809e-05    0.013145    0.000000    0.000000    0.000000
     9        -0.436575442999649    2.775e-05    0.013145    0.000000    0.000000    0.000000
    10        -0.436574275283482    1.048e-05    0.013145    0.000000    0.000000    0.000000
    11        -0.436574384950736    5.154e-06    0.013145    0.000000    0.000000    0.000000
    12        -0.436574346083602    2.504e-06    0.013145    0.000000    0.000000    0.000000
    13        -0.436574339209744    1.343e-06    0.013145    0.000000    0.000000    0.000000
    14        -0.436574365714001    6.328e-07    0.013145    0.000000    0.000000    0.000000
    15        -0.436574364339639    1.718e-07    0.013145    0.000000    0.000000    0.000000
    16        -0.436574364200684    1.048e-07    0.013145    0.000000    0.000000    0.000000
    17        -0.436574364987937    2.968e-08    0.013145    0.000000    0.000000    0.000000
    18        -0.436574364566576    1.370e-08    0.013145    0.000000    0.000000    0.000000

      * MP2 total energy                      = -151.289315746638323
      * CCSD total energy                     = -151.310265891891277
      * CCSD(T) total energy                     = -151.322472032994398
*** Psi4 exiting successfully. Buy a developer a beer!
