                               Psi4 1.3.2 release

  ==> Input File <==

--------------------------------------------------------------------------
memory 4 GB

molecule  {
0 3
O    0.000000000000    0.000000000000   -1.642913919703
H    0.000000000000   -0.754350113400   -1.048582051821
H   -0.000000000000    0.754350113400   -1.048582051821
O    0.000000000000    0.000000000000    1.775054323738
}
set {
basis aug-cc-pvtz
reference uhf
e_convergence 10
scf_type pk
freeze_core true
}

set ccenergy {
e_convergence 10
r_convergence 10
}

e = energy('ccsd(t)')

print_out('Stephenergy {}'.format(e))

--------------------------------------------------------------------------

    Molecular point group: c2v

    Geometry (in Angstrom), charge = 0, multiplicity = 3:

       Center              X                  Y                   Z               Mass
    ------------   -----------------  -----------------  -----------------  -----------------
         O           -0.000000000000     0.000000000000    -1.642913919703    15.994914619570
         H            0.000000000000    -0.754350113400    -1.048582051821     1.007825032230
         H           -0.000000000000     0.754350113400    -1.048582051821     1.007825032230
         O           -0.000000000000     0.000000000000     1.775054323738    15.994914619570

  Charge       = 0
  Multiplicity = 3
  Basis Set: AUG-CC-PVTZ
    Blend: AUG-CC-PVTZ

    Orbital Energies [Eh]
    ---------------------

    Alpha Occupied:

       1A1   -20.728935     2A1   -20.562677     3A1    -1.437928
       4A1    -1.347470     1B2    -0.729346     1B1    -0.728950
       2B2    -0.709125     5A1    -0.632292     6A1    -0.579993
       2B1    -0.505372

    Alpha Virtual:

       7A1     0.035514     3B2     0.048535     3B1     0.132080
       8A1     0.134693     9A1     0.148185     4B2     0.158081
       4B1     0.181173     5B2     0.184923    10A1     0.189317
      11A1     0.250564     6B2     0.257847     1A2     0.266001
      12A1     0.273433     5B1     0.320039    13A1     0.368060
       7B2     0.382472    14A1     0.454297     8B2     0.472029
       2A2     0.609153     9B2     0.616393    15A1     0.618396
      16A1     0.619745     6B1     0.640631    17A1     0.717714
       3A2     0.730894    10B2     0.735924     7B1     0.742388
      18A1     0.800812    19A1     0.838549     8B1     0.840722
      11B2     0.853980     9B1     0.915299    20A1     0.926778
       4A2     0.934330    12B2     0.941961    21A1     0.958856
      10B1     0.961373    13B2     0.963272    22A1     1.049197
      14B2     1.054744    11B1     1.123856     5A2     1.185968
      23A1     1.186616    15B2     1.256557    24A1     1.262779
      16B2     1.274610    25A1     1.347354     6A2     1.511999
      12B1     1.592976    26A1     1.634058    27A1     1.827518
      17B2     1.829549    18B2     1.973056    13B1     1.978605
      19B2     1.990873    28A1     2.005459     7A2     2.011256
      14B1     2.026322    29A1     2.036563     8A2     2.040075
      20B2     2.081967    30A1     2.086484    15B1     2.120222
      31A1     2.147104    21B2     2.262111    16B1     2.279322
       9A2     2.329954    32A1     2.338767    33A1     2.402843
      34A1     2.488299    22B2     2.492357    17B1     2.506272
      35A1     2.575200    23B2     2.689001    18B1     2.718620
      36A1     2.820697    10A2     2.889500    24B2     2.903883
      25B2     3.668639    37A1     3.755983    11A2     4.031534
      19B1     4.050826    26B2     4.085057    20B1     4.103199
      38A1     4.150876    27B2     4.278680    21B1     4.286124
      39A1     4.369269    12A2     4.383888    40A1     4.407611
      22B1     4.417494    28B2     4.530321    41A1     4.750142
      29B2     4.855297    13A2     5.153723    30B2     5.164585
      31B2     5.255665    42A1     5.374703    23B1     5.531116
      43A1     5.679367    44A1     6.200250    24B1     6.315172
      32B2     6.316028    14A2     6.370260    45A1     6.375608
      25B1     6.402320    33B2     6.451082    46A1     6.480788
      34B2     6.528606    26B1     6.738281    15A2     6.819242
      47A1     6.820691    27B1     6.927708    48A1     6.930754
      35B2     6.957486    49A1     7.033435    28B1     7.137459
      29B1     7.261737    16A2     7.320552    36B2     7.349696
      50A1     7.356864    17A2     7.359159    51A1     7.552012
      52A1     7.903954    37B2     7.940051    53A1     8.532975
      38B2     8.818365    54A1    15.769187

    Beta Occupied:

       1A1   -20.650372     2A1   -20.562715     3A1    -1.347646
       4A1    -1.095633     1B2    -0.709273     5A1    -0.584188
       6A1    -0.538482     1B1    -0.505362

    Beta Virtual:

       2B2     0.035379     7A1     0.036633     2B1     0.049911
       3B2     0.069594     8A1     0.140852     9A1     0.150751
       3B1     0.160368     4B2     0.180807    10A1     0.189636
       5B2     0.222077     4B1     0.225367    11A1     0.259561
       6B2     0.263306     1A2     0.266318    12A1     0.274920
       5B1     0.320693    13A1     0.371445     7B2     0.387583
      14A1     0.455433     8B2     0.472542     9B2     0.618822
      15A1     0.620834     2A2     0.641369    16A1     0.651475
       6B1     0.652679    17A1     0.719050     3A2     0.732318
       7B1     0.744437    10B2     0.747357    18A1     0.809594
      19A1     0.851258     8B1     0.912154     9B1     0.930705
      20A1     0.932187     4A2     0.935753    11B2     0.940490
      12B2     0.944679    21A1     0.959793    13B2     1.010355
      10B1     1.025276    22A1     1.049780    14B2     1.057451
      11B1     1.129015     5A2     1.186676    23A1     1.190713
      15B2     1.269306    16B2     1.278655    24A1     1.282157
      25A1     1.404234     6A2     1.512109    12B1     1.593081
      26A1     1.646720    27A1     1.828656    17B2     1.830780
      18B2     1.981228    13B1     2.016694    19B2     2.021647
      28A1     2.030768     7A2     2.041889    14B1     2.046639
      29A1     2.100098    20B2     2.126074    30A1     2.156781
       8A2     2.182473    15B1     2.189274    31A1     2.195792
      16B1     2.283684    21B2     2.307707     9A2     2.332933
      32A1     2.358995    33A1     2.414114    34A1     2.492513
      22B2     2.497065    17B1     2.510939    35A1     2.578124
      23B2     2.689170    18B1     2.718709    36A1     2.821014
      10A2     2.889522    24B2     2.905901    25B2     3.668676
      37A1     3.756115    11A2     4.031621    19B1     4.102516
      38A1     4.165729    20B1     4.223654    26B2     4.241670
      21B1     4.286150    27B2     4.292236    12A2     4.383936
      39A1     4.392323    40A1     4.417227    22B1     4.417685
      28B2     4.530538    41A1     4.750294    29B2     4.855392
      13A2     5.153741    30B2     5.164591    31B2     5.255688
      42A1     5.375154    23B1     5.531120    43A1     5.679701
      44A1     6.201993    24B1     6.424018    32B2     6.424730
      14A2     6.446917    45A1     6.450609    25B1     6.457594
      33B2     6.495595    46A1     6.529567    34B2     6.540738
      26B1     6.744719    47A1     6.930850    15A2     7.008258
      48A1     7.010120    27B1     7.035065    35B2     7.066604
      49A1     7.114281    28B1     7.137769    29B1     7.261694
      16A2     7.320599    36B2     7.351666    50A1     7.357567
      17A2     7.359213    51A1     7.552739    52A1     7.904186
      37B2     7.940035    53A1     8.618026    38B2     8.818304
      54A1    15.769181

    Final Occupation by Irrep:
             A1    A2    B1    B2
    DOCC [     6,    0,    1,    1 ]
    SOCC [     0,    0,    1,    1 ]

  @UHF Final Energy:  -150.87369320798223

   => Energetics <=

    Nuclear Repulsion Energy =             21.9727209289077194
    One-Electron Energy =                -251.7370687668851019
    Two-Electron Energy =                  78.8906546299951401
    Total Energy =                       -150.8736932079822282

  UHF NO Occupations:
  HONO-2 :    6 A1 1.9970745
  HONO-1 :    2 B1 1.0000000
  HONO-0 :    2 B2 1.0000000
  LUNO+0 :    7 A1 0.0029255
  LUNO+1 :    8 A1 0.0016859
  LUNO+2 :    9 A1 0.0000024
  LUNO+3 :   10 A1 0.0000004

Computation Completed

Properties will be evaluated at   0.000000,   0.000000,   0.000000 [a0]

Properties computed using the SCF density matrix

  Nuclear Dipole Moment: [e a0]
     X:    -0.0000      Y:     0.0000      Z:    -1.9654

  Electronic Dipole Moment: [e a0]
     X:     0.0000      Y:     0.0000      Z:     2.7970

  Dipole Moment: [e a0]
     X:    -0.0000      Y:     0.0000      Z:     0.8316     Total:     0.8316

  Dipole Moment: [D]
     X:    -0.0000      Y:     0.0000      Z:     2.1138     Total:     2.1138

*** tstop() called on c5-1.compute.lan at Wed Mar 10 09:44:30 2021
Module time:
	user time   =      46.74 seconds =       0.78 minutes
	system time =       0.67 seconds =       0.01 minutes
	total time  =          5 seconds =       0.08 minutes
Total time:
	user time   =      46.74 seconds =       0.78 minutes
	system time =       0.67 seconds =       0.01 minutes
	total time  =          5 seconds =       0.08 minutes
 MINTS: Wrapper to libmints.
   by Justin Turney

   Calculation information:
      Number of threads:                12
      Number of atoms:                   4
      Number of AO shells:              46
      Number of SO shells:              37
      Number of primitives:             82
      Number of atomic orbitals:       160
      Number of basis functions:       138

      Number of irreps:                  4
      Integral cutoff                 0.00e+00
      Number of functions per irrep: [  54   17   29   38 ]

 OEINTS: Overlap, kinetic, potential, dipole, and quadrupole integrals
         stored in file 35.

      Computing two-electron integrals...done
      Computed 11527428 non-zero two-electron integrals.
        Stored in file 33.

*** tstart() called on c5-1.compute.lan
*** at Wed Mar 10 09:44:32 2021

	Wfn Parameters:
	--------------------
	Wavefunction         = CCSD_T
	Number of irreps     = 4
	Number of MOs        = 138
	Number of active MOs = 136
	AO-Basis             = NONE
	Semicanonical        = false
	Reference            = UHF
	Print Level          = 1

	IRREP	# MOs	# FZDC	# DOCC	# SOCC	# VIRT	# FZVR
	-----	-----	------	------	------	------	------
	 A1	   54	    2	    4	    0	    48	    0
	 A2	   17	    0	    0	    0	    17	    0
	 B1	   29	    0	    1	    1	    27	    0
	 B2	   38	    0	    1	    1	    36	    0
	Transforming integrals...
	IWL integrals will be deleted.
	(OO|OO)...
	Presorting SO-basis two-electron integrals.
	Sorting File: SO Ints (nn|nn) nbuckets = 1
	Transforming the one-electron integrals and constructing Fock matrices
	Starting AA/AB first half-transformation.
	Sorting AA/AB half-transformed integrals.
	Starting BB first half-transformation.
	Sorting BB half-transformed integrals.
	First half integral transformation complete.
	Starting AA second half-transformation.
	Starting AB second half-transformation.
	Starting BB second half-transformation.
	Two-electron integral transformation complete.
	(OO|OV)...
	Starting AA second half-transformation.
	Starting AB second half-transformation.
	Starting BB second half-transformation.
	Two-electron integral transformation complete.
	(OO|VV)...
	Starting AA second half-transformation.
	Starting AB second half-transformation.
	Starting BB second half-transformation.
	Two-electron integral transformation complete.
	(OV|OO)...
	Starting AA/AB first half-transformation.
	Sorting AA/AB half-transformed integrals.
	Starting BB first half-transformation.
	Sorting BB half-transformed integrals.
	First half integral transformation complete.
	Starting AA second half-transformation.
	Starting AB second half-transformation.
	Starting BB second half-transformation.
	Two-electron integral transformation complete.
	(OV|OV)...
	Starting AA second half-transformation.
	Starting AB second half-transformation.
	Starting BB second half-transformation.
	Two-electron integral transformation complete.
	(OV|VV)...
	Starting AA second half-transformation.
	Starting AB second half-transformation.
	Starting BB second half-transformation.
	Two-electron integral transformation complete.
	(VV|OO)...
	Starting AA/AB first half-transformation.
	Sorting AA/AB half-transformed integrals.
	Starting BB first half-transformation.
	Sorting BB half-transformed integrals.
	First half integral transformation complete.
	Starting AA second half-transformation.
	Starting AB second half-transformation.
	Starting BB second half-transformation.
	Two-electron integral transformation complete.
	(VV|OV)...
	Starting AA second half-transformation.
	Starting AB second half-transformation.
	Starting BB second half-transformation.
	Two-electron integral transformation complete.
	(VV|VV)...
	Starting AA second half-transformation.
	Starting AB second half-transformation.
	Starting BB second half-transformation.
	Two-electron integral transformation complete.
	Frozen core energy     =   -125.47436320894626

	Size of irrep 0 of <AB|CD> integrals:      5.040 (MW) /     40.320 (MB)
	Size of irrep 1 of <AB|CD> integrals:      3.197 (MW) /     25.576 (MB)
	Size of irrep 2 of <AB|CD> integrals:      3.640 (MW) /     29.124 (MB)
	Size of irrep 3 of <AB|CD> integrals:      4.783 (MW) /     38.264 (MB)
	Total:                                    16.660 (MW) /    133.283 (MB)

	Size of irrep 0 of <ab|cd> integrals:      5.327 (MW) /     42.615 (MB)
	Size of irrep 1 of <ab|cd> integrals:      3.430 (MW) /     27.439 (MB)
	Size of irrep 2 of <ab|cd> integrals:      3.893 (MW) /     31.142 (MB)
	Size of irrep 3 of <ab|cd> integrals:      5.072 (MW) /     40.572 (MB)
	Total:                                    17.721 (MW) /    141.768 (MB)

	Size of irrep 0 of <Ab|Cd> integrals:     21.912 (MW) /    175.294 (MB)
	Size of irrep 1 of <Ab|Cd> integrals:     13.242 (MW) /    105.939 (MB)
	Size of irrep 2 of <Ab|Cd> integrals:     15.062 (MW) /    120.497 (MB)
	Size of irrep 3 of <Ab|Cd> integrals:     19.705 (MW) /    157.638 (MB)
	Total:                                    69.921 (MW) /    559.368 (MB)

	Size of irrep 0 of <IA|BC> integrals:      1.469 (MW) /     11.748 (MB)
	Size of irrep 1 of <IA|BC> integrals:      0.694 (MW) /      5.550 (MB)
	Size of irrep 2 of <IA|BC> integrals:      0.908 (MW) /      7.266 (MB)
	Size of irrep 3 of <IA|BC> integrals:      1.198 (MW) /      9.588 (MB)
	Total:                                     4.269 (MW) /     34.152 (MB)

	Size of irrep 0 of <ia|bc> integrals:      1.220 (MW) /      9.758 (MB)
	Size of irrep 1 of <ia|bc> integrals:      0.493 (MW) /      3.941 (MB)
	Size of irrep 2 of <ia|bc> integrals:      0.698 (MW) /      5.588 (MB)
	Size of irrep 3 of <ia|bc> integrals:      0.959 (MW) /      7.675 (MB)
	Total:                                     3.370 (MW) /     26.961 (MB)

	Size of irrep 0 of <Ia|Bc> integrals:      1.507 (MW) /     12.058 (MB)
	Size of irrep 1 of <Ia|Bc> integrals:      0.721 (MW) /      5.764 (MB)
	Size of irrep 2 of <Ia|Bc> integrals:      0.939 (MW) /      7.514 (MB)
	Size of irrep 3 of <Ia|Bc> integrals:      1.234 (MW) /      9.872 (MB)
	Total:                                     4.401 (MW) /     35.208 (MB)

	Size of irrep 0 of <iA|bC> integrals:      1.194 (MW) /      9.549 (MB)
	Size of irrep 1 of <iA|bC> integrals:      0.477 (MW) /      3.814 (MB)
	Size of irrep 2 of <iA|bC> integrals:      0.671 (MW) /      5.371 (MB)
	Size of irrep 3 of <iA|bC> integrals:      0.928 (MW) /      7.422 (MB)
	Total:                                     3.270 (MW) /     26.156 (MB)

	Size of irrep 0 of tIjAb amplitudes:       0.094 (MW) /      0.749 (MB)
	Size of irrep 1 of tIjAb amplitudes:       0.015 (MW) /      0.116 (MB)
	Size of irrep 2 of tIjAb amplitudes:       0.047 (MW) /      0.373 (MB)
	Size of irrep 3 of tIjAb amplitudes:       0.053 (MW) /      0.426 (MB)
	Total:                                     0.208 (MW) /      1.664 (MB)

	Nuclear Rep. energy          =     21.97272092890772
	SCF energy                   =   -150.87369320798223
	One-electron energy          =    -83.29304034090228
	Two-electron (AA) energy     =      9.95299923490436
	Two-electron (BB) energy     =      5.29702403204762
	Two-electron (AB) energy     =     20.67096614600480
	Two-electron energy          =     35.92098941295679
	Reference energy             =   -150.87369320798405

*** tstop() called on c5-1.compute.lan at Wed Mar 10 09:44:50 2021
Module time:
	user time   =      49.86 seconds =       0.83 minutes
	system time =       9.40 seconds =       0.16 minutes
	total time  =         18 seconds =       0.30 minutes
Total time:
	user time   =     102.30 seconds =       1.70 minutes
	system time =      10.43 seconds =       0.17 minutes
	total time  =         25 seconds =       0.42 minutes
            **************************
            *                        *
            *        CCENERGY        *
            *                        *
            **************************

    Nuclear Rep. energy (wfn)     =   21.972720928907719
    SCF energy          (wfn)     = -150.873693207982228
    Reference energy    (file100) = -150.873693207984047

    Input parameters:
    -----------------
    Wave function   =     CCSD_T
    Reference wfn   =     UHF
    Brueckner       =     No
    Memory (Mbytes) =     4000.0
    Maxiter         =     50
    R_Convergence   =     1.0e-10
    E_Convergence   =     1.0e-10
    Restart         =     Yes
    DIIS            =     Yes
    AO Basis        =     NONE
    ABCD            =     NEW
    Cache Level     =     2
    Cache Type      =     LRU
    Print Level     =     1
    Num. of threads =     12
    # Amps to Print =     10
    Print MP2 Amps? =     No
    Analyze T2 Amps =     No
    Print Pair Ener =     No
    Local CC        =     No
    SCS-MP2         =     False
    SCSN-MP2        =     False
    SCS-CCSD        =     False

MP2 correlation energy -0.4156187414510185
                Solving CC Amplitude Equations
                ------------------------------
  Iter             Energy              RMS        T1Diag      D1Diag    New D1Diag    D2Diag
  ----     ---------------------    ---------   ----------  ----------  ----------   --------
     0        -0.415618741451019    0.000e+00    0.000000    0.000000    0.000000    0.000000
     1        -0.426507019729137    5.631e-02    0.010347    0.000000    0.000000    0.000000
     2        -0.434584099840672    1.676e-02    0.010851    0.000000    0.000000    0.000000
     3        -0.436677141144596    8.394e-03    0.012663    0.000000    0.000000    0.000000
     4        -0.436553267378324    2.489e-03    0.013007    0.000000    0.000000    0.000000
     5        -0.436541217137390    1.258e-03    0.013149    0.000000    0.000000    0.000000
     6        -0.436566702420196    4.978e-04    0.013162    0.000000    0.000000    0.000000
     7        -0.436570840610361    2.247e-04    0.013152    0.000000    0.000000    0.000000
     8        -0.436571578586219    6.812e-05    0.013146    0.000000    0.000000    0.000000
     9        -0.436572792715369    2.794e-05    0.013146    0.000000    0.000000    0.000000
    10        -0.436571620486014    1.061e-05    0.013146    0.000000    0.000000    0.000000
    11        -0.436571729417024    5.270e-06    0.013146    0.000000    0.000000    0.000000
    12        -0.436571690421139    2.575e-06    0.013146    0.000000    0.000000    0.000000
    13        -0.436571684167759    1.377e-06    0.013146    0.000000    0.000000    0.000000
    14        -0.436571711496391    6.433e-07    0.013146    0.000000    0.000000    0.000000
    15        -0.436571710177885    1.724e-07    0.013146    0.000000    0.000000    0.000000
    16        -0.436571710043283    1.053e-07    0.013146    0.000000    0.000000    0.000000
    17        -0.436571710839853    2.975e-08    0.013146    0.000000    0.000000    0.000000
    18        -0.436571710421863    1.363e-08    0.013146    0.000000    0.000000    0.000000

      * MP2 total energy                      = -151.289311949435074
      * CCSD total energy                     = -151.310264918137648
      * CCSD(T) total energy                     = -151.322470880674928
*** Psi4 exiting successfully. Buy a developer a beer!
