                               Psi4 1.3.2 release

  ==> Input File <==

--------------------------------------------------------------------------
memory 4 GB

molecule  {
0 3
O    0.000000000000    0.000000000000    1.270170376227
H    0.000000000000   -0.761692700932    1.859547910427
H   -0.000000000000    0.761692700932    1.859547910427
O    0.000000000000    0.000000000000   -1.504507223573
}
set {
basis aug-cc-pvtz
reference uhf
e_convergence 10
scf_type pk
freeze_core true
}

set ccenergy {
e_convergence 10
r_convergence 10
}

e = energy('ccsd(t)')

print_out('Stephenergy {}'.format(e))

--------------------------------------------------------------------------

    Molecular point group: c2v

    Geometry (in Angstrom), charge = 0, multiplicity = 3:

       Center              X                  Y                   Z               Mass
    ------------   -----------------  -----------------  -----------------  -----------------
         O            0.000000000000     0.000000000000     1.270170376227    15.994914619570
         H            0.000000000000    -0.761692700932     1.859547910427     1.007825032230
         H           -0.000000000000     0.761692700932     1.859547910427     1.007825032230
         O            0.000000000000     0.000000000000    -1.504507223573    15.994914619570

  Charge       = 0
  Multiplicity = 3
  Basis Set: AUG-CC-PVTZ
    Blend: AUG-CC-PVTZ

    Orbital Energies [Eh]
    ---------------------

    Alpha Occupied:

       1A1   -20.684520     2A1   -20.571396     3A1    -1.393936
       4A1    -1.354430     1B2    -0.718172     5A1    -0.688168
       1B1    -0.685242     2B2    -0.586252     6A1    -0.585915
       2B1    -0.513805

    Alpha Virtual:

       7A1     0.029544     3B2     0.047656     8A1     0.118616
       3B1     0.154085     9A1     0.159445     4B2     0.180216
       5B2     0.186923     4B1     0.192768    10A1     0.197909
       1A2     0.263649     6B2     0.263975    11A1     0.264712
      12A1     0.314394     5B1     0.326787    13A1     0.376084
       7B2     0.380250    14A1     0.449575     8B2     0.464054
       9B2     0.600045     6B1     0.643642    15A1     0.647294
       2A2     0.658163    16A1     0.666388    17A1     0.696265
       3A2     0.721619    10B2     0.722424     7B1     0.767589
      18A1     0.792871    19A1     0.818438     8B1     0.837508
      20A1     0.860476     9B1     0.901310    11B2     0.918622
       4A2     0.924460    12B2     0.945940    13B2     0.979308
      21A1     0.989664    10B1     1.012715    22A1     1.045965
      14B2     1.050891    11B1     1.121781     5A2     1.176198
      23A1     1.190988    15B2     1.198776    16B2     1.327225
      24A1     1.336383    25A1     1.443706     6A2     1.506813
      12B1     1.593491    26A1     1.667304    27A1     1.813097
      17B2     1.819588    18B2     1.975420    28A1     2.040731
      13B1     2.047711    19B2     2.054046     7A2     2.056762
      14B1     2.058872    29A1     2.078432    30A1     2.114870
       8A2     2.118691    20B2     2.135095    31A1     2.139418
      15B1     2.144963    32A1     2.251790    21B2     2.266999
      16B1     2.303457     9A2     2.311493    17B1     2.433610
      33A1     2.470079    22B2     2.482522    34A1     2.485353
      35A1     2.696250    18B1     2.716313    23B2     2.721933
      36A1     2.838456    24B2     2.863094    10A2     2.879234
      25B2     3.688155    37A1     3.752040    11A2     4.011349
      19B1     4.077946    20B1     4.099079    38A1     4.140779
      26B2     4.182854    27B2     4.278258    21B1     4.290223
      39A1     4.350377    12A2     4.380975    40A1     4.428909
      22B1     4.449193    28B2     4.513041    41A1     4.785760
      29B2     4.834161    30B2     5.136706    13A2     5.140480
      31B2     5.246683    42A1     5.333346    23B1     5.510644
      43A1     5.683024    44A1     6.194747    24B1     6.388849
      45A1     6.408843    14A2     6.410144    32B2     6.423582
      25B1     6.435481    33B2     6.485712    46A1     6.534572
      34B2     6.582665    26B1     6.715652    27B1     6.902293
      47A1     6.904826    15A2     6.924510    48A1     6.937477
      35B2     6.985632    49A1     7.045959    28B1     7.133392
      29B1     7.276596    16A2     7.302040    36B2     7.307227
      17A2     7.352079    50A1     7.435898    51A1     7.538132
      52A1     7.908004    37B2     7.909227    38B2     8.795410
      53A1     8.860194    54A1    15.723465

    Beta Occupied:

       1A1   -20.605654     2A1   -20.570934     3A1    -1.353738
       4A1    -1.051133     1B2    -0.717843     5A1    -0.587623
       1B1    -0.513145     2B2    -0.495671

    Beta Virtual:

       6A1     0.029382     3B2     0.047737     2B1     0.086513
       7A1     0.091921     8A1     0.140973     9A1     0.166989
       3B1     0.170674     4B2     0.180846     5B2     0.190510
      10A1     0.225418     4B1     0.253287     1A2     0.263651
       6B2     0.264423    11A1     0.288380    12A1     0.316791
       5B1     0.328088     7B2     0.380423    13A1     0.386425
      14A1     0.450661     8B2     0.464250     9B2     0.601659
      15A1     0.660154     6B1     0.667452     2A2     0.672582
      16A1     0.673700    17A1     0.713457     3A2     0.722086
      10B2     0.734630     7B1     0.778851    18A1     0.806236
       8B1     0.846706    19A1     0.849929     4A2     0.924847
      20A1     0.928165    11B2     0.936314    12B2     0.953018
      13B2     0.983085     9B1     0.986747    21A1     0.996675
      14B2     1.052007    22A1     1.052228    10B1     1.060402
      11B1     1.137838     5A2     1.176392    23A1     1.192466
      15B2     1.201515    16B2     1.329611    24A1     1.393049
      25A1     1.483236     6A2     1.507232    12B1     1.595462
      26A1     1.697284    27A1     1.818110    17B2     1.819915
      18B2     1.976789    28A1     2.070066    13B1     2.070822
      19B2     2.071479     7A2     2.081400    29A1     2.098368
      14B1     2.100088    30A1     2.155177    20B2     2.180773
       8A2     2.201913    31A1     2.207663    15B1     2.258051
      32A1     2.308550     9A2     2.311627    21B2     2.318829
      16B1     2.319306    17B1     2.441537    33A1     2.482038
      22B2     2.485419    34A1     2.515108    35A1     2.703422
      18B1     2.718000    23B2     2.722828    36A1     2.850718
      24B2     2.863276    10A2     2.879267    25B2     3.689026
      37A1     3.752176    11A2     4.011377    19B1     4.080112
      38A1     4.172901    26B2     4.217716    20B1     4.259595
      27B2     4.289872    21B1     4.294926    12A2     4.381081
      39A1     4.427287    22B1     4.454358    40A1     4.467599
      28B2     4.513120    41A1     4.796624    29B2     4.834316
      30B2     5.136883    13A2     5.140554    31B2     5.247088
      42A1     5.333981    23B1     5.510754    43A1     5.687524
      44A1     6.196348    24B1     6.485581    14A2     6.486974
      32B2     6.487760    45A1     6.493106    25B1     6.499097
      33B2     6.521641    46A1     6.606032    34B2     6.610270
      26B1     6.722567    47A1     6.951876    15A2     7.038062
      48A1     7.041936    27B1     7.084792    35B2     7.097492
      28B1     7.133807    49A1     7.173809    29B1     7.280765
      16A2     7.302297    36B2     7.307412    17A2     7.352500
      50A1     7.438635    51A1     7.539239    52A1     7.908565
      37B2     7.909576    38B2     8.795779    53A1     8.939618
      54A1    15.723782

    Final Occupation by Irrep:
             A1    A2    B1    B2
    DOCC [     5,    0,    1,    2 ]
    SOCC [     1,    0,    1,    0 ]

  @UHF Final Energy:  -150.87340857699490

   => Energetics <=

    Nuclear Repulsion Energy =             23.7992790990344858
    One-Electron Energy =                -255.6677973906704437
    Two-Electron Energy =                  80.9951097146410604
    Total Energy =                       -150.8734085769949047

  UHF NO Occupations:
  HONO-2 :    5 A1 1.9970493
  HONO-1 :    2 B1 1.0000000
  HONO-0 :    6 A1 1.0000000
  LUNO+0 :    7 A1 0.0029507
  LUNO+1 :    3 B2 0.0017950
  LUNO+2 :    8 A1 0.0000217
  LUNO+3 :    9 A1 0.0000024

Computation Completed

Properties will be evaluated at   0.000000,   0.000000,   0.000000 [a0]

Properties computed using the SCF density matrix

  Nuclear Dipole Moment: [e a0]
     X:     0.0000      Y:     0.0000      Z:     3.4854

  Electronic Dipole Moment: [e a0]
     X:     0.0000      Y:     0.0000      Z:    -2.6494

  Dipole Moment: [e a0]
     X:     0.0000      Y:     0.0000      Z:     0.8360     Total:     0.8360

  Dipole Moment: [D]
     X:     0.0000      Y:     0.0000      Z:     2.1250     Total:     2.1250

*** tstop() called on c2-24.compute.lan at Mon Mar  8 17:44:52 2021
Module time:
	user time   =      47.58 seconds =       0.79 minutes
	system time =       2.03 seconds =       0.03 minutes
	total time  =          5 seconds =       0.08 minutes
Total time:
	user time   =      47.58 seconds =       0.79 minutes
	system time =       2.03 seconds =       0.03 minutes
	total time  =          5 seconds =       0.08 minutes
 MINTS: Wrapper to libmints.
   by Justin Turney

   Calculation information:
      Number of threads:                12
      Number of atoms:                   4
      Number of AO shells:              46
      Number of SO shells:              37
      Number of primitives:             82
      Number of atomic orbitals:       160
      Number of basis functions:       138

      Number of irreps:                  4
      Integral cutoff                 0.00e+00
      Number of functions per irrep: [  54   17   29   38 ]

 OEINTS: Overlap, kinetic, potential, dipole, and quadrupole integrals
         stored in file 35.

      Computing two-electron integrals...done
      Computed 11330155 non-zero two-electron integrals.
        Stored in file 33.

*** tstart() called on c2-24.compute.lan
*** at Mon Mar  8 17:44:55 2021

	Wfn Parameters:
	--------------------
	Wavefunction         = CCSD_T
	Number of irreps     = 4
	Number of MOs        = 138
	Number of active MOs = 136
	AO-Basis             = NONE
	Semicanonical        = false
	Reference            = UHF
	Print Level          = 1

	IRREP	# MOs	# FZDC	# DOCC	# SOCC	# VIRT	# FZVR
	-----	-----	------	------	------	------	------
	 A1	   54	    2	    3	    1	    48	    0
	 A2	   17	    0	    0	    0	    17	    0
	 B1	   29	    0	    1	    1	    27	    0
	 B2	   38	    0	    2	    0	    36	    0
	Transforming integrals...
	IWL integrals will be deleted.
	(OO|OO)...
	Presorting SO-basis two-electron integrals.
	Sorting File: SO Ints (nn|nn) nbuckets = 1
	Transforming the one-electron integrals and constructing Fock matrices
	Starting AA/AB first half-transformation.
	Sorting AA/AB half-transformed integrals.
	Starting BB first half-transformation.
	Sorting BB half-transformed integrals.
	First half integral transformation complete.
	Starting AA second half-transformation.
	Starting AB second half-transformation.
	Starting BB second half-transformation.
	Two-electron integral transformation complete.
	(OO|OV)...
	Starting AA second half-transformation.
	Starting AB second half-transformation.
	Starting BB second half-transformation.
	Two-electron integral transformation complete.
	(OO|VV)...
	Starting AA second half-transformation.
	Starting AB second half-transformation.
	Starting BB second half-transformation.
	Two-electron integral transformation complete.
	(OV|OO)...
	Starting AA/AB first half-transformation.
	Sorting AA/AB half-transformed integrals.
	Starting BB first half-transformation.
	Sorting BB half-transformed integrals.
	First half integral transformation complete.
	Starting AA second half-transformation.
	Starting AB second half-transformation.
	Starting BB second half-transformation.
	Two-electron integral transformation complete.
	(OV|OV)...
	Starting AA second half-transformation.
	Starting AB second half-transformation.
	Starting BB second half-transformation.
	Two-electron integral transformation complete.
	(OV|VV)...
	Starting AA second half-transformation.
	Starting AB second half-transformation.
	Starting BB second half-transformation.
	Two-electron integral transformation complete.
	(VV|OO)...
	Starting AA/AB first half-transformation.
	Sorting AA/AB half-transformed integrals.
	Starting BB first half-transformation.
	Sorting BB half-transformed integrals.
	First half integral transformation complete.
	Starting AA second half-transformation.
	Starting AB second half-transformation.
	Starting BB second half-transformation.
	Two-electron integral transformation complete.
	(VV|OV)...
	Starting AA second half-transformation.
	Starting AB second half-transformation.
	Starting BB second half-transformation.
	Two-electron integral transformation complete.
	(VV|VV)...
	Starting AA second half-transformation.
	Starting AB second half-transformation.
	Starting BB second half-transformation.
	Two-electron integral transformation complete.
	Frozen core energy     =   -126.36234557953215

	Size of irrep 0 of <AB|CD> integrals:      5.040 (MW) /     40.320 (MB)
	Size of irrep 1 of <AB|CD> integrals:      3.197 (MW) /     25.576 (MB)
	Size of irrep 2 of <AB|CD> integrals:      3.640 (MW) /     29.124 (MB)
	Size of irrep 3 of <AB|CD> integrals:      4.783 (MW) /     38.264 (MB)
	Total:                                    16.660 (MW) /    133.283 (MB)

	Size of irrep 0 of <ab|cd> integrals:      5.382 (MW) /     43.059 (MB)
	Size of irrep 1 of <ab|cd> integrals:      3.389 (MW) /     27.114 (MB)
	Size of irrep 2 of <ab|cd> integrals:      3.936 (MW) /     31.490 (MB)
	Size of irrep 3 of <ab|cd> integrals:      5.018 (MW) /     40.141 (MB)
	Total:                                    17.726 (MW) /    141.804 (MB)

	Size of irrep 0 of <Ab|Cd> integrals:     22.024 (MW) /    176.194 (MB)
	Size of irrep 1 of <Ab|Cd> integrals:     13.170 (MW) /    105.357 (MB)
	Size of irrep 2 of <Ab|Cd> integrals:     15.140 (MW) /    121.119 (MB)
	Size of irrep 3 of <Ab|Cd> integrals:     19.598 (MW) /    156.787 (MB)
	Total:                                    69.932 (MW) /    559.457 (MB)

	Size of irrep 0 of <IA|BC> integrals:      1.469 (MW) /     11.748 (MB)
	Size of irrep 1 of <IA|BC> integrals:      0.694 (MW) /      5.550 (MB)
	Size of irrep 2 of <IA|BC> integrals:      0.908 (MW) /      7.266 (MB)
	Size of irrep 3 of <IA|BC> integrals:      1.198 (MW) /      9.588 (MB)
	Total:                                     4.269 (MW) /     34.152 (MB)

	Size of irrep 0 of <ia|bc> integrals:      1.178 (MW) /      9.426 (MB)
	Size of irrep 1 of <ia|bc> integrals:      0.527 (MW) /      4.212 (MB)
	Size of irrep 2 of <ia|bc> integrals:      0.663 (MW) /      5.301 (MB)
	Size of irrep 3 of <ia|bc> integrals:      0.999 (MW) /      7.992 (MB)
	Total:                                     3.366 (MW) /     26.931 (MB)

	Size of irrep 0 of <Ia|Bc> integrals:      1.521 (MW) /     12.164 (MB)
	Size of irrep 1 of <Ia|Bc> integrals:      0.711 (MW) /      5.690 (MB)
	Size of irrep 2 of <Ia|Bc> integrals:      0.949 (MW) /      7.595 (MB)
	Size of irrep 3 of <Ia|Bc> integrals:      1.222 (MW) /      9.775 (MB)
	Total:                                     4.403 (MW) /     35.225 (MB)

	Size of irrep 0 of <iA|bC> integrals:      1.140 (MW) /      9.123 (MB)
	Size of irrep 1 of <iA|bC> integrals:      0.512 (MW) /      4.094 (MB)
	Size of irrep 2 of <iA|bC> integrals:      0.634 (MW) /      5.074 (MB)
	Size of irrep 3 of <iA|bC> integrals:      0.978 (MW) /      7.827 (MB)
	Total:                                     3.265 (MW) /     26.118 (MB)

	Size of irrep 0 of tIjAb amplitudes:       0.084 (MW) /      0.676 (MB)
	Size of irrep 1 of tIjAb amplitudes:       0.022 (MW) /      0.174 (MB)
	Size of irrep 2 of tIjAb amplitudes:       0.039 (MW) /      0.311 (MB)
	Size of irrep 3 of tIjAb amplitudes:       0.062 (MW) /      0.496 (MB)
	Total:                                     0.207 (MW) /      1.657 (MB)

	Nuclear Rep. energy          =     23.79927909903449
	SCF energy                   =   -150.87340857699490
	One-electron energy          =    -85.37561011110866
	Two-electron (AA) energy     =     10.36008794191326
	Two-electron (BB) energy     =      5.46432045004603
	Two-electron (AB) energy     =     21.24085962265100
	Two-electron energy          =     37.06526801461029
	Reference energy             =   -150.87340857699604

*** tstop() called on c2-24.compute.lan at Mon Mar  8 17:45:25 2021
Module time:
	user time   =     233.32 seconds =       3.89 minutes
	system time =      14.44 seconds =       0.24 minutes
	total time  =         30 seconds =       0.50 minutes
Total time:
	user time   =     287.17 seconds =       4.79 minutes
	system time =      17.03 seconds =       0.28 minutes
	total time  =         38 seconds =       0.63 minutes
            **************************
            *                        *
            *        CCENERGY        *
            *                        *
            **************************

    Nuclear Rep. energy (wfn)     =   23.799279099034486
    SCF energy          (wfn)     = -150.873408576994905
    Reference energy    (file100) = -150.873408576996042

    Input parameters:
    -----------------
    Wave function   =     CCSD_T
    Reference wfn   =     UHF
    Brueckner       =     No
    Memory (Mbytes) =     4000.0
    Maxiter         =     50
    R_Convergence   =     1.0e-10
    E_Convergence   =     1.0e-10
    Restart         =     Yes
    DIIS            =     Yes
    AO Basis        =     NONE
    ABCD            =     NEW
    Cache Level     =     2
    Cache Type      =     LRU
    Print Level     =     1
    Num. of threads =     12
    # Amps to Print =     10
    Print MP2 Amps? =     No
    Analyze T2 Amps =     No
    Print Pair Ener =     No
    Local CC        =     No
    SCS-MP2         =     False
    SCSN-MP2        =     False
    SCS-CCSD        =     False

MP2 correlation energy -0.4163830277891367
                Solving CC Amplitude Equations
                ------------------------------
  Iter             Energy              RMS        T1Diag      D1Diag    New D1Diag    D2Diag
  ----     ---------------------    ---------   ----------  ----------  ----------   --------
     0        -0.416383027789137    0.000e+00    0.000000    0.000000    0.000000    0.000000
     1        -0.427131060529494    5.707e-02    0.010597    0.000000    0.000000    0.000000
     2        -0.435241758469822    1.706e-02    0.011088    0.000000    0.000000    0.000000
     3        -0.437399591728623    8.790e-03    0.013014    0.000000    0.000000    0.000000
     4        -0.437273140906362    2.683e-03    0.013423    0.000000    0.000000    0.000000
     5        -0.437263608878637    1.396e-03    0.013616    0.000000    0.000000    0.000000
     6        -0.437292659849563    5.302e-04    0.013643    0.000000    0.000000    0.000000
     7        -0.437295640323620    2.151e-04    0.013637    0.000000    0.000000    0.000000
     8        -0.437296586347007    6.691e-05    0.013632    0.000000    0.000000    0.000000
     9        -0.437297275058679    2.391e-05    0.013631    0.000000    0.000000    0.000000
    10        -0.437296372592837    9.237e-06    0.013631    0.000000    0.000000    0.000000
    11        -0.437296538677598    4.007e-06    0.013631    0.000000    0.000000    0.000000
    12        -0.437296498607143    1.447e-06    0.013631    0.000000    0.000000    0.000000
    13        -0.437296506579860    7.319e-07    0.013631    0.000000    0.000000    0.000000
    14        -0.437296529143598    3.058e-07    0.013631    0.000000    0.000000    0.000000
    15        -0.437296530807056    1.116e-07    0.013631    0.000000    0.000000    0.000000
    16        -0.437296531372579    5.011e-08    0.013631    0.000000    0.000000    0.000000
    17        -0.437296531949496    1.931e-08    0.013631    0.000000    0.000000    0.000000
    18        -0.437296531804203    1.006e-08    0.013631    0.000000    0.000000    0.000000

      * MP2 total energy                      = -151.289791604785165
      * CCSD total energy                     = -151.310705108552810
      * CCSD(T) total energy                     = -151.323012363687894
*** Psi4 exiting successfully. Buy a developer a beer!
