                               Psi4 1.3.2 release

  ==> Input File <==

--------------------------------------------------------------------------
memory 4 GB

molecule  {
0 3
O   -1.638982113598   -0.022705896175    0.000000000000
H   -0.676942049298   -0.026728968996    0.000000000000
H   -1.864503997238    0.913521087669    0.000000000000
O    1.799116319043   -0.033170069207    0.000000000000
}
set {
basis aug-cc-pvtz
reference uhf
e_convergence 10
scf_type pk
freeze_core true
}

set ccenergy {
e_convergence 10
r_convergence 10
}

e = energy('ccsd(t)')

print_out('Stephenergy {}'.format(e))

--------------------------------------------------------------------------

    Molecular point group: cs

    Geometry (in Angstrom), charge = 0, multiplicity = 3:

       Center              X                  Y                   Z               Mass
    ------------   -----------------  -----------------  -----------------  -----------------
         O           -1.638982113598    -0.022705896175     0.000000000000    15.994914619570
         H           -0.676942049298    -0.026728968996     0.000000000000     1.007825032230
         H           -1.864503997238     0.913521087669     0.000000000000     1.007825032230
         O            1.799116319043    -0.033170069207     0.000000000000    15.994914619570

  Charge       = 0
  Multiplicity = 3
  Basis Set: AUG-CC-PVTZ
    Blend: AUG-CC-PVTZ

    Orbital Energies [Eh]
    ---------------------

    Alpha Occupied:

       1Ap   -20.730872     2Ap   -20.561802     3Ap    -1.439681
       4Ap    -1.345324     5Ap    -0.730596     1App   -0.730508
       6Ap    -0.708615     7Ap    -0.632889     8Ap    -0.578800
       2App   -0.504186

    Alpha Virtual:

       9Ap     0.034147    10Ap     0.053399    11Ap     0.128656
       3App    0.132430    12Ap     0.147328    13Ap     0.160356
      14Ap     0.182751     4App    0.183132    15Ap     0.206919
      16Ap     0.235617    17Ap     0.268838     5App    0.280904
      18Ap     0.289336     6App    0.318353    19Ap     0.361946
      20Ap     0.386750    21Ap     0.456678    22Ap     0.554549
       7App    0.603397    23Ap     0.607974    24Ap     0.643373
      25Ap     0.666357     8App    0.686520    26Ap     0.711411
       9App    0.733483    10App    0.747382    27Ap     0.756837
      28Ap     0.788835    11App    0.824974    29Ap     0.837790
      30Ap     0.853913    12App    0.876071    31Ap     0.913786
      32Ap     0.927939    13App    0.937798    33Ap     0.949365
      14App    0.973383    34Ap     0.976120    35Ap     1.037690
      36Ap     1.084583    15App    1.163207    37Ap     1.170441
      16App    1.210916    38Ap     1.219379    39Ap     1.264984
      40Ap     1.276572    17App    1.521173    41Ap     1.531744
      18App    1.589195    42Ap     1.600498    43Ap     1.806958
      44Ap     1.814819    19App    1.978620    45Ap     1.978679
      46Ap     2.003782    20App    2.009443    47Ap     2.017971
      21App    2.034488    48Ap     2.039583    22App    2.089482
      49Ap     2.122080    50Ap     2.138183    23App    2.162602
      51Ap     2.237913    24App    2.286088    52Ap     2.326570
      53Ap     2.369204    25App    2.427202    54Ap     2.451800
      26App    2.459282    55Ap     2.484430    56Ap     2.547680
      57Ap     2.655805    27App    2.722858    58Ap     2.723279
      59Ap     2.855653    60Ap     2.907853    28App    2.933833
      61Ap     3.682838    62Ap     3.811870    29App    4.029471
      30App    4.053727    63Ap     4.068410    31App    4.142435
      64Ap     4.180562    65Ap     4.267906    32App    4.290065
      66Ap     4.359916    33App    4.389164    67Ap     4.426084
      34App    4.428698    68Ap     4.564350    69Ap     4.772336
      70Ap     4.936121    35App    5.150884    71Ap     5.179672
      72Ap     5.294413    73Ap     5.366686    36App    5.525559
      74Ap     5.676578    75Ap     6.192942    37App    6.314014
      76Ap     6.314036    38App    6.366629    77Ap     6.367773
      39App    6.466427    78Ap     6.483645    79Ap     6.530746
      80Ap     6.595621    40App    6.716722    81Ap     6.814125
      41App    6.818176    82Ap     6.917030    42App    6.924690
      83Ap     6.952429    84Ap     7.039104    43App    7.139464
      44App    7.269603    85Ap     7.311534    45App    7.322875
      86Ap     7.352826    46App    7.410463    87Ap     7.634146
      88Ap     7.923406    89Ap     7.954083    90Ap     8.807940
      91Ap     8.987968    92Ap    16.302935

    Beta Occupied:

       1Ap   -20.652127     2Ap   -20.561875     3Ap    -1.345613
       4Ap    -1.097133     5Ap    -0.708417     6Ap    -0.581630
       7Ap    -0.540530     1App   -0.504223

    Beta Virtual:

       8Ap     0.034060     9Ap     0.047324     2App    0.049966
      10Ap     0.058773    11Ap     0.143157    12Ap     0.151672
       3App    0.160107    13Ap     0.179709    14Ap     0.207432
      15Ap     0.217434     4App    0.226533    16Ap     0.244449
      17Ap     0.271245     5App    0.281099    18Ap     0.292013
       6App    0.319836    19Ap     0.365292    20Ap     0.393696
      21Ap     0.457148    22Ap     0.556674     7App    0.636277
      23Ap     0.638223    24Ap     0.646743    25Ap     0.669911
       8App    0.700500    26Ap     0.712053     9App    0.734261
      10App    0.748435    27Ap     0.770588    28Ap     0.800387
      29Ap     0.845126    11App    0.860575    30Ap     0.911876
      12App    0.925664    31Ap     0.928810    32Ap     0.945964
      13App    0.948201    33Ap     0.967393    34Ap     1.008242
      14App    1.022966    35Ap     1.039329    36Ap     1.093546
      15App    1.167617    37Ap     1.173544    16App    1.218706
      38Ap     1.260442    39Ap     1.270937    40Ap     1.284883
      17App    1.521945    41Ap     1.545940    18App    1.590187
      42Ap     1.627109    43Ap     1.809742    44Ap     1.817001
      45Ap     2.014251    19App    2.016780    46Ap     2.016896
      20App    2.038635    47Ap     2.045166    21App    2.124571
      48Ap     2.162568    49Ap     2.173137    22App    2.179254
      50Ap     2.180475    23App    2.213829    51Ap     2.278183
      24App    2.287516    52Ap     2.336591    53Ap     2.385496
      25App    2.430660    54Ap     2.453970    26App    2.466742
      55Ap     2.491237    56Ap     2.553395    57Ap     2.662546
      27App    2.723427    58Ap     2.725281    59Ap     2.859283
      60Ap     2.909705    28App    2.934475    61Ap     3.683109
      62Ap     3.812966    29App    4.029997    30App    4.126687
      63Ap     4.171256    31App    4.239577    64Ap     4.240863
      65Ap     4.275196    32App    4.290095    66Ap     4.377001
      33App    4.389447    34App    4.430214    67Ap     4.456356
      68Ap     4.565107    69Ap     4.773366    70Ap     4.936840
      35App    5.150873    71Ap     5.180070    72Ap     5.294616
      73Ap     5.367492    36App    5.525560    74Ap     5.676903
      75Ap     6.193817    37App    6.422968    76Ap     6.422984
      38App    6.442772    77Ap     6.444079    78Ap     6.518892
      39App    6.522293    79Ap     6.551297    80Ap     6.642612
      40App    6.719113    81Ap     6.917829    41App    7.005568
      82Ap     7.006289    42App    7.034255    83Ap     7.060012
      84Ap     7.122178    43App    7.141312    44App    7.269704
      85Ap     7.311769    45App    7.323446    86Ap     7.352970
      46App    7.411029    87Ap     7.636393    88Ap     7.923747
      89Ap     7.954440    90Ap     8.811342    91Ap     9.062362
      92Ap    16.303236

    Final Occupation by Irrep:
             Ap   App
    DOCC [     7,    1 ]
    SOCC [     1,    1 ]

  @UHF Final Energy:  -150.87460202102318

   => Energetics <=

    Nuclear Repulsion Energy =             21.8248929602504944
    One-Electron Energy =                -251.4441703783093942
    Two-Electron Energy =                  78.7446753970357349
    Total Energy =                       -150.8746020210231791

  UHF NO Occupations:
  HONO-2 :    7 Ap 1.9970404
  HONO-1 :    2App 1.0000000
  HONO-0 :    8 Ap 1.0000000
  LUNO+0 :    9 Ap 0.0029596
  LUNO+1 :   10 Ap 0.0017385
  LUNO+2 :   11 Ap 0.0000024
  LUNO+3 :   12 Ap 0.0000006

Computation Completed

Properties will be evaluated at   0.000000,   0.000000,   0.000000 [a0]

Properties computed using the SCF density matrix

  Nuclear Dipole Moment: [e a0]
     X:    -2.3818      Y:     0.8311      Z:     0.0000

  Electronic Dipole Moment: [e a0]
     X:     2.9380      Y:    -0.2215      Z:     0.0000

  Dipole Moment: [e a0]
     X:     0.5562      Y:     0.6095      Z:     0.0000     Total:     0.8252

  Dipole Moment: [D]
     X:     1.4138      Y:     1.5493      Z:     0.0000     Total:     2.0974

*** tstop() called on c5-20.compute.lan at Tue Mar  9 14:29:34 2021
Module time:
	user time   =      59.83 seconds =       1.00 minutes
	system time =       0.93 seconds =       0.02 minutes
	total time  =          6 seconds =       0.10 minutes
Total time:
	user time   =      59.83 seconds =       1.00 minutes
	system time =       0.93 seconds =       0.02 minutes
	total time  =          6 seconds =       0.10 minutes
 MINTS: Wrapper to libmints.
   by Justin Turney

   Calculation information:
      Number of threads:                12
      Number of atoms:                   4
      Number of AO shells:              46
      Number of SO shells:              46
      Number of primitives:             82
      Number of atomic orbitals:       160
      Number of basis functions:       138

      Number of irreps:                  2
      Integral cutoff                 0.00e+00
      Number of functions per irrep: [  92   46 ]

 OEINTS: Overlap, kinetic, potential, dipole, and quadrupole integrals
         stored in file 35.

      Computing two-electron integrals...done
      Computed 22924923 non-zero two-electron integrals.
        Stored in file 33.

*** tstart() called on c5-20.compute.lan
*** at Tue Mar  9 14:29:37 2021

	Wfn Parameters:
	--------------------
	Wavefunction         = CCSD_T
	Number of irreps     = 2
	Number of MOs        = 138
	Number of active MOs = 136
	AO-Basis             = NONE
	Semicanonical        = false
	Reference            = UHF
	Print Level          = 1

	IRREP	# MOs	# FZDC	# DOCC	# SOCC	# VIRT	# FZVR
	-----	-----	------	------	------	------	------
	 Ap	   92	    2	    5	    1	    84	    0
	 App	   46	    0	    1	    1	    44	    0
	Transforming integrals...
	IWL integrals will be deleted.
	(OO|OO)...
	Presorting SO-basis two-electron integrals.
	Sorting File: SO Ints (nn|nn) nbuckets = 1
	Transforming the one-electron integrals and constructing Fock matrices
	Starting AA/AB first half-transformation.
	Sorting AA/AB half-transformed integrals.
	Starting BB first half-transformation.
	Sorting BB half-transformed integrals.
	First half integral transformation complete.
	Starting AA second half-transformation.
	Starting AB second half-transformation.
	Starting BB second half-transformation.
	Two-electron integral transformation complete.
	(OO|OV)...
	Starting AA second half-transformation.
	Starting AB second half-transformation.
	Starting BB second half-transformation.
	Two-electron integral transformation complete.
	(OO|VV)...
	Starting AA second half-transformation.
	Starting AB second half-transformation.
	Starting BB second half-transformation.
	Two-electron integral transformation complete.
	(OV|OO)...
	Starting AA/AB first half-transformation.
	Sorting AA/AB half-transformed integrals.
	Starting BB first half-transformation.
	Sorting BB half-transformed integrals.
	First half integral transformation complete.
	Starting AA second half-transformation.
	Starting AB second half-transformation.
	Starting BB second half-transformation.
	Two-electron integral transformation complete.
	(OV|OV)...
	Starting AA second half-transformation.
	Starting AB second half-transformation.
	Starting BB second half-transformation.
	Two-electron integral transformation complete.
	(OV|VV)...
	Starting AA second half-transformation.
	Starting AB second half-transformation.
	Starting BB second half-transformation.
	Two-electron integral transformation complete.
	(VV|OO)...
	Starting AA/AB first half-transformation.
	Sorting AA/AB half-transformed integrals.
	Starting BB first half-transformation.
	Sorting BB half-transformed integrals.
	First half integral transformation complete.
	Starting AA second half-transformation.
	Starting AB second half-transformation.
	Starting BB second half-transformation.
	Two-electron integral transformation complete.
	(VV|OV)...
	Starting AA second half-transformation.
	Starting AB second half-transformation.
	Starting BB second half-transformation.
	Two-electron integral transformation complete.
	(VV|VV)...
	Starting AA second half-transformation.
	Starting AB second half-transformation.
	Starting BB second half-transformation.
	Two-electron integral transformation complete.
	Frozen core energy     =   -125.42683574856957

	Size of irrep 0 of <AB|CD> integrals:     19.643 (MW) /    157.141 (MB)
	Size of irrep 1 of <AB|CD> integrals:     13.660 (MW) /    109.283 (MB)
	Total:                                    33.303 (MW) /    266.424 (MB)

	Size of irrep 0 of <ab|cd> integrals:     20.794 (MW) /    166.349 (MB)
	Size of irrep 1 of <ab|cd> integrals:     14.631 (MW) /    117.045 (MB)
	Total:                                    35.424 (MW) /    283.394 (MB)

	Size of irrep 0 of <Ab|Cd> integrals:     83.174 (MW) /    665.395 (MB)
	Size of irrep 1 of <Ab|Cd> integrals:     56.550 (MW) /    452.403 (MB)
	Total:                                   139.725 (MW) /   1117.798 (MB)

	Size of irrep 0 of <IA|BC> integrals:      5.323 (MW) /     42.586 (MB)
	Size of irrep 1 of <IA|BC> integrals:      3.193 (MW) /     25.547 (MB)
	Total:                                     8.517 (MW) /     68.133 (MB)

	Size of irrep 0 of <ia|bc> integrals:      4.348 (MW) /     34.780 (MB)
	Size of irrep 1 of <ia|bc> integrals:      2.372 (MW) /     18.972 (MB)
	Total:                                     6.719 (MW) /     53.752 (MB)

	Size of irrep 0 of <Ia|Bc> integrals:      5.472 (MW) /     43.776 (MB)
	Size of irrep 1 of <Ia|Bc> integrals:      3.309 (MW) /     26.470 (MB)
	Total:                                     8.781 (MW) /     70.246 (MB)

	Size of irrep 0 of <iA|bC> integrals:      4.232 (MW) /     33.853 (MB)
	Size of irrep 1 of <iA|bC> integrals:      2.286 (MW) /     18.289 (MB)
	Total:                                     6.518 (MW) /     52.142 (MB)

	Size of irrep 0 of tIjAb amplitudes:       0.292 (MW) /      2.335 (MB)
	Size of irrep 1 of tIjAb amplitudes:       0.120 (MW) /      0.963 (MB)
	Total:                                     0.412 (MW) /      3.297 (MB)

	Nuclear Rep. energy          =     21.82489296025049
	SCF energy                   =   -150.87460202102318
	One-electron energy          =    -83.09717316942124
	Two-electron (AA) energy     =      9.92295693159108
	Two-electron (BB) energy     =      5.28120487132145
	Two-electron (AB) energy     =     20.62035213380305
	Two-electron energy          =     35.82451393671558
	Reference energy             =   -150.87460202102474

*** tstop() called on c5-20.compute.lan at Tue Mar  9 14:30:10 2021
Module time:
	user time   =     105.61 seconds =       1.76 minutes
	system time =      18.32 seconds =       0.31 minutes
	total time  =         33 seconds =       0.55 minutes
Total time:
	user time   =     171.81 seconds =       2.86 minutes
	system time =      19.83 seconds =       0.33 minutes
	total time  =         42 seconds =       0.70 minutes
            **************************
            *                        *
            *        CCENERGY        *
            *                        *
            **************************

    Nuclear Rep. energy (wfn)     =   21.824892960250494
    SCF energy          (wfn)     = -150.874602021023179
    Reference energy    (file100) = -150.874602021024742

    Input parameters:
    -----------------
    Wave function   =     CCSD_T
    Reference wfn   =     UHF
    Brueckner       =     No
    Memory (Mbytes) =     4000.0
    Maxiter         =     50
    R_Convergence   =     1.0e-10
    E_Convergence   =     1.0e-10
    Restart         =     Yes
    DIIS            =     Yes
    AO Basis        =     NONE
    ABCD            =     NEW
    Cache Level     =     2
    Cache Type      =     LRU
    Print Level     =     1
    Num. of threads =     12
    # Amps to Print =     10
    Print MP2 Amps? =     No
    Analyze T2 Amps =     No
    Print Pair Ener =     No
    Local CC        =     No
    SCS-MP2         =     False
    SCSN-MP2        =     False
    SCS-CCSD        =     False

MP2 correlation energy -0.4161290116208060
                Solving CC Amplitude Equations
                ------------------------------
  Iter             Energy              RMS        T1Diag      D1Diag    New D1Diag    D2Diag
  ----     ---------------------    ---------   ----------  ----------  ----------   --------
     0        -0.416129011620806    0.000e+00    0.000000    0.000000    0.000000    0.000000
     1        -0.426890947718579    5.667e-02    0.010456    0.000000    0.000000    0.000000
     2        -0.434981838864595    1.687e-02    0.010936    0.000000    0.000000    0.000000
     3        -0.437100813347326    8.479e-03    0.012773    0.000000    0.000000    0.000000
     4        -0.436975304593970    2.519e-03    0.013122    0.000000    0.000000    0.000000
     5        -0.436963894165548    1.271e-03    0.013266    0.000000    0.000000    0.000000
     6        -0.436989836490801    5.024e-04    0.013279    0.000000    0.000000    0.000000
     7        -0.436993863606939    2.254e-04    0.013269    0.000000    0.000000    0.000000
     8        -0.436994655306131    7.588e-05    0.013263    0.000000    0.000000    0.000000
     9        -0.436995875196620    4.503e-05    0.013262    0.000000    0.000000    0.000000
    10        -0.436994696048246    3.664e-05    0.013262    0.000000    0.000000    0.000000
    11        -0.436994797308693    3.521e-05    0.013262    0.000000    0.000000    0.000000
    12        -0.436994661206099    3.460e-05    0.013263    0.000000    0.000000    0.000000
    13        -0.436994574171179    3.415e-05    0.013264    0.000000    0.000000    0.000000
    14        -0.436995002371857    3.322e-05    0.013270    0.000000    0.000000    0.000000
    15        -0.436995044513938    3.082e-05    0.013283    0.000000    0.000000    0.000000
    16        -0.436995017759437    2.540e-05    0.013356    0.000000    0.000000    0.000000
    17        -0.436994994736321    1.476e-05    0.013406    0.000000    0.000000    0.000000
    18        -0.436994920183641    6.489e-06    0.013428    0.000000    0.000000    0.000000
    19        -0.436995072502224    2.881e-06    0.013433    0.000000    0.000000    0.000000
    20        -0.436995154441674    1.359e-06    0.013434    0.000000    0.000000    0.000000
    21        -0.436995160062404    5.698e-07    0.013434    0.000000    0.000000    0.000000
    22        -0.436995160383168    2.259e-07    0.013434    0.000000    0.000000    0.000000
    23        -0.436995160941875    9.650e-08    0.013434    0.000000    0.000000    0.000000
    24        -0.436995160819306    4.096e-08    0.013434    0.000000    0.000000    0.000000
    25        -0.436995161475714    2.154e-08    0.013434    0.000000    0.000000    0.000000
    26        -0.436995161856595    7.527e-09    0.013434    0.000000    0.000000    0.000000
    27        -0.436995161930505    2.717e-09    0.013434    0.000000    0.000000    0.000000
    28        -0.436995161955535    1.664e-09    0.013434    0.000000    0.000000    0.000000
    29        -0.436995161955910    1.378e-09    0.013434    0.000000    0.000000    0.000000
    30        -0.436995161945496    1.236e-09    0.013434    0.000000    0.000000    0.000000
    31        -0.436995161936313    1.158e-09    0.013434    0.000000    0.000000    0.000000
    32        -0.436995161930159    1.102e-09    0.013434    0.000000    0.000000    0.000000
    33        -0.436995161927191    1.005e-09    0.013434    0.000000    0.000000    0.000000
    34        -0.436995161928758    7.361e-10    0.013434    0.000000    0.000000    0.000000
    35        -0.436995161930513    3.722e-10    0.013434    0.000000    0.000000    0.000000
    36        -0.436995161931114    1.463e-10    0.013434    0.000000    0.000000    0.000000

      * MP2 total energy                      = -151.290731032645539
      * CCSD total energy                     = -151.311597182954358
      * CCSD(T) total energy                     = -151.323872224036478
*** Psi4 exiting successfully. Buy a developer a beer!
