                               Psi4 1.3.2 release

  ==> Input File <==

--------------------------------------------------------------------------
memory 4 GB

molecule  {
0 3
O    0.000000000000   -0.000000000000   -1.442928669300
H    0.000000000000   -0.729955010400   -0.826143058100
H   -0.000000000000    0.729955010400   -0.826143058100
O    0.000000000000    0.000000000000    1.547037715700
}
set {
basis aug-cc-pvtz
reference uhf
e_convergence 10
scf_type pk
freeze_core true
}

set ccenergy {
e_convergence 10
r_convergence 10
}

e = energy('ccsd(t)')

print_out('Stephenergy {}'.format(e))

--------------------------------------------------------------------------

    Molecular point group: c2v

    Geometry (in Angstrom), charge = 0, multiplicity = 3:

       Center              X                  Y                   Z               Mass
    ------------   -----------------  -----------------  -----------------  -----------------
         O            0.000000000000     0.000000000000    -1.442928669299    15.994914619570
         H            0.000000000000    -0.729955010400    -0.826143058099     1.007825032230
         H           -0.000000000000     0.729955010400    -0.826143058099     1.007825032230
         O            0.000000000000     0.000000000000     1.547037715701    15.994914619570

  Charge       = 0
  Multiplicity = 3
  Basis Set: AUG-CC-PVTZ
    Blend: AUG-CC-PVTZ

    Orbital Energies [Eh]
    ---------------------

    Alpha Occupied:

       1A1   -20.734494     2A1   -20.559579     3A1    -1.444793
       4A1    -1.349701     1B2    -0.736321     1B1    -0.735155
       2B2    -0.700345     5A1    -0.644278     6A1    -0.581268
       2B1    -0.503739

    Alpha Virtual:

       7A1     0.036237     3B2     0.048844     8A1     0.130071
       3B1     0.130438     9A1     0.153458     4B2     0.159298
       4B1     0.186322     5B2     0.187029    10A1     0.192423
      11A1     0.265338     6B2     0.265615     1A2     0.266426
      12A1     0.276309     5B1     0.326907     7B2     0.388270
      13A1     0.388482    14A1     0.458070     8B2     0.476618
       2A2     0.614053    15A1     0.631418     9B2     0.631546
      16A1     0.652671     6B1     0.655531    17A1     0.717602
       3A2     0.733493    10B2     0.752605     7B1     0.768318
      18A1     0.775430     8B1     0.825328    11B2     0.851878
      19A1     0.866701     9B1     0.921210    12B2     0.945855
       4A2     0.954202    20A1     0.964585    10B1     1.004071
      21A1     1.007414    13B2     1.021927    14B2     1.072044
      22A1     1.072310    11B1     1.178693    23A1     1.200667
       5A2     1.203285    24A1     1.222616    15B2     1.264695
      16B2     1.357667    25A1     1.456887     6A2     1.513782
      12B1     1.585244    26A1     1.774418    27A1     1.837169
      17B2     1.869967    18B2     1.960151    13B1     1.975115
      28A1     2.011978     7A2     2.019938    19B2     2.023714
      14B1     2.045132    29A1     2.049412     8A2     2.091279
      30A1     2.104315    20B2     2.126744    15B1     2.164761
      31A1     2.219835    16B1     2.327771    21B2     2.346660
       9A2     2.351995    32A1     2.364788    33A1     2.428871
      34A1     2.506544    22B2     2.540241    17B1     2.574996
      35A1     2.634445    23B2     2.697866    18B1     2.728787
      24B2     2.883768    36A1     2.886920    10A2     2.897414
      25B2     3.700253    37A1     3.733940    19B1     4.056087
      11A2     4.071342    20B1     4.127226    26B2     4.133943
      38A1     4.198331    21B1     4.238666    27B2     4.305845
      39A1     4.315177    12A2     4.393784    22B1     4.432367
      40A1     4.534885    28B2     4.577882    41A1     4.791717
      29B2     4.906090    13A2     5.160896    30B2     5.217623
      31B2     5.257051    42A1     5.399628    23B1     5.564130
      43A1     5.645977    44A1     6.248932    24B1     6.311304
      32B2     6.314957    14A2     6.395588    45A1     6.410780
      25B1     6.433421    33B2     6.497176    46A1     6.526577
      34B2     6.576434    26B1     6.787627    15A2     6.821638
      47A1     6.824430    27B1     6.942788    35B2     6.984202
      48A1     6.998215    49A1     7.049276    28B1     7.151234
      29B1     7.277769    36B2     7.326451    16A2     7.338698
      17A2     7.362726    50A1     7.416899    51A1     7.582465
      52A1     7.878330    37B2     7.995108    38B2     8.876494
      53A1     8.992044    54A1    15.974174

    Beta Occupied:

       1A1   -20.656047     2A1   -20.559658     3A1    -1.350306
       4A1    -1.102793     1B2    -0.700914     5A1    -0.597177
       6A1    -0.539657     1B1    -0.503603

    Beta Virtual:

       2B2     0.031894     7A1     0.037562     2B1     0.045858
       3B2     0.069011     8A1     0.135288     9A1     0.156099
       3B1     0.161047     4B2     0.179120    10A1     0.193011
       4B1     0.225452     5B2     0.227946     6B2     0.267020
       1A2     0.267149    11A1     0.271807    12A1     0.281701
       5B1     0.329616    13A1     0.392395     7B2     0.398106
      14A1     0.460038     8B2     0.477036     9B2     0.632540
       2A2     0.646068    15A1     0.653806     6B1     0.665429
      16A1     0.665832    17A1     0.718584     3A2     0.734611
      10B2     0.768113     7B1     0.773818    18A1     0.789981
      19A1     0.870464     8B1     0.907810    11B2     0.938972
       9B1     0.941887     4A2     0.957048    12B2     0.958805
      20A1     0.966566    21A1     1.012806    10B1     1.042096
      13B2     1.042486    22A1     1.075683    14B2     1.086609
      11B1     1.193469     5A2     1.204460    23A1     1.220009
      24A1     1.250561    15B2     1.264886    16B2     1.375985
      25A1     1.472964     6A2     1.514188    12B1     1.585777
      26A1     1.795884    27A1     1.845324    17B2     1.871547
      18B2     1.974839    13B1     2.011944    28A1     2.042662
      19B2     2.045892    14B1     2.076513     7A2     2.090719
      29A1     2.107439    20B2     2.188456     8A2     2.189601
      30A1     2.195547    15B1     2.216433    31A1     2.261241
      16B1     2.339226     9A2     2.358134    32A1     2.373619
      21B2     2.373867    33A1     2.439563    34A1     2.509171
      22B2     2.548475    17B1     2.579661    35A1     2.640447
      23B2     2.699265    18B1     2.729004    24B2     2.884747
      36A1     2.887878    10A2     2.897504    25B2     3.701428
      37A1     3.735016    11A2     4.071488    19B1     4.119337
      38A1     4.199429    20B1     4.219974    21B1     4.253505
      26B2     4.297467    27B2     4.306933    39A1     4.333909
      12A2     4.393855    22B1     4.433389    40A1     4.562323
      28B2     4.580304    41A1     4.792791    29B2     4.906988
      13A2     5.160961    30B2     5.217663    31B2     5.257345
      42A1     5.400095    23B1     5.564155    43A1     5.646299
      44A1     6.256227    24B1     6.419776    32B2     6.422951
      14A2     6.471976    45A1     6.482703    25B1     6.487307
      33B2     6.504763    46A1     6.570911    34B2     6.625848
      26B1     6.794793    47A1     6.997480    15A2     7.009852
      48A1     7.022429    27B1     7.047934    35B2     7.092501
      49A1     7.122376    28B1     7.152924    29B1     7.277954
      36B2     7.326764    16A2     7.338951    17A2     7.362811
      50A1     7.417724    51A1     7.584065    52A1     7.878585
      37B2     7.995147    38B2     8.876329    53A1     9.071256
      54A1    15.974192

    Final Occupation by Irrep:
             A1    A2    B1    B2
    DOCC [     6,    0,    1,    1 ]
    SOCC [     0,    0,    1,    1 ]

  @UHF Final Energy:  -150.87135437073849

   => Energetics <=

    Nuclear Repulsion Energy =             23.9593262044183462
    One-Electron Energy =                -255.6615322093811358
    Two-Electron Energy =                  80.8308516342243024
    Total Energy =                       -150.8713543707384872

  UHF NO Occupations:
  HONO-2 :    6 A1 1.9970870
  HONO-1 :    2 B1 1.0000000
  HONO-0 :    2 B2 1.0000000
  LUNO+0 :    7 A1 0.0029130
  LUNO+1 :    8 A1 0.0015936
  LUNO+2 :    9 A1 0.0000024
  LUNO+3 :   10 A1 0.0000023

Computation Completed

Properties will be evaluated at   0.000000,   0.000000,   0.000000 [a0]

Properties computed using the SCF density matrix

  Nuclear Dipole Moment: [e a0]
     X:     0.0000      Y:     0.0000      Z:    -1.5485

  Electronic Dipole Moment: [e a0]
     X:     0.0000      Y:     0.0000      Z:     2.4281

  Dipole Moment: [e a0]
     X:     0.0000      Y:     0.0000      Z:     0.8796     Total:     0.8796

  Dipole Moment: [D]
     X:     0.0000      Y:     0.0000      Z:     2.2358     Total:     2.2358

*** tstop() called on b1-8.compute.lan at Wed Mar 10 09:23:32 2021
Module time:
	user time   =      34.48 seconds =       0.57 minutes
	system time =       1.06 seconds =       0.02 minutes
	total time  =          4 seconds =       0.07 minutes
Total time:
	user time   =      34.48 seconds =       0.57 minutes
	system time =       1.06 seconds =       0.02 minutes
	total time  =          4 seconds =       0.07 minutes
 MINTS: Wrapper to libmints.
   by Justin Turney

   Calculation information:
      Number of threads:                12
      Number of atoms:                   4
      Number of AO shells:              46
      Number of SO shells:              37
      Number of primitives:             82
      Number of atomic orbitals:       160
      Number of basis functions:       138

      Number of irreps:                  4
      Integral cutoff                 0.00e+00
      Number of functions per irrep: [  54   17   29   38 ]

 OEINTS: Overlap, kinetic, potential, dipole, and quadrupole integrals
         stored in file 35.

      Computing two-electron integrals...done
      Computed 11330913 non-zero two-electron integrals.
        Stored in file 33.

*** tstart() called on b1-8.compute.lan
*** at Wed Mar 10 09:23:34 2021

	Wfn Parameters:
	--------------------
	Wavefunction         = CCSD_T
	Number of irreps     = 4
	Number of MOs        = 138
	Number of active MOs = 136
	AO-Basis             = NONE
	Semicanonical        = false
	Reference            = UHF
	Print Level          = 1

	IRREP	# MOs	# FZDC	# DOCC	# SOCC	# VIRT	# FZVR
	-----	-----	------	------	------	------	------
	 A1	   54	    2	    4	    0	    48	    0
	 A2	   17	    0	    0	    0	    17	    0
	 B1	   29	    0	    1	    1	    27	    0
	 B2	   38	    0	    1	    1	    36	    0
	Transforming integrals...
	IWL integrals will be deleted.
	(OO|OO)...
	Presorting SO-basis two-electron integrals.
	Sorting File: SO Ints (nn|nn) nbuckets = 1
	Transforming the one-electron integrals and constructing Fock matrices
	Starting AA/AB first half-transformation.
	Sorting AA/AB half-transformed integrals.
	Starting BB first half-transformation.
	Sorting BB half-transformed integrals.
	First half integral transformation complete.
	Starting AA second half-transformation.
	Starting AB second half-transformation.
	Starting BB second half-transformation.
	Two-electron integral transformation complete.
	(OO|OV)...
	Starting AA second half-transformation.
	Starting AB second half-transformation.
	Starting BB second half-transformation.
	Two-electron integral transformation complete.
	(OO|VV)...
	Starting AA second half-transformation.
	Starting AB second half-transformation.
	Starting BB second half-transformation.
	Two-electron integral transformation complete.
	(OV|OO)...
	Starting AA/AB first half-transformation.
	Sorting AA/AB half-transformed integrals.
	Starting BB first half-transformation.
	Sorting BB half-transformed integrals.
	First half integral transformation complete.
	Starting AA second half-transformation.
	Starting AB second half-transformation.
	Starting BB second half-transformation.
	Two-electron integral transformation complete.
	(OV|OV)...
	Starting AA second half-transformation.
	Starting AB second half-transformation.
	Starting BB second half-transformation.
	Two-electron integral transformation complete.
	(OV|VV)...
	Starting AA second half-transformation.
	Starting AB second half-transformation.
	Starting BB second half-transformation.
	Two-electron integral transformation complete.
	(VV|OO)...
	Starting AA/AB first half-transformation.
	Sorting AA/AB half-transformed integrals.
	Starting BB first half-transformation.
	Sorting BB half-transformed integrals.
	First half integral transformation complete.
	Starting AA second half-transformation.
	Starting AB second half-transformation.
	Starting BB second half-transformation.
	Two-electron integral transformation complete.
	(VV|OV)...
	Starting AA second half-transformation.
	Starting AB second half-transformation.
	Starting BB second half-transformation.
	Two-electron integral transformation complete.
	(VV|VV)...
	Starting AA second half-transformation.
	Starting AB second half-transformation.
	Starting BB second half-transformation.
	Two-electron integral transformation complete.
	Frozen core energy     =   -126.23406446599616

	Size of irrep 0 of <AB|CD> integrals:      5.040 (MW) /     40.320 (MB)
	Size of irrep 1 of <AB|CD> integrals:      3.197 (MW) /     25.576 (MB)
	Size of irrep 2 of <AB|CD> integrals:      3.640 (MW) /     29.124 (MB)
	Size of irrep 3 of <AB|CD> integrals:      4.783 (MW) /     38.264 (MB)
	Total:                                    16.660 (MW) /    133.283 (MB)

	Size of irrep 0 of <ab|cd> integrals:      5.327 (MW) /     42.615 (MB)
	Size of irrep 1 of <ab|cd> integrals:      3.430 (MW) /     27.439 (MB)
	Size of irrep 2 of <ab|cd> integrals:      3.893 (MW) /     31.142 (MB)
	Size of irrep 3 of <ab|cd> integrals:      5.072 (MW) /     40.572 (MB)
	Total:                                    17.721 (MW) /    141.768 (MB)

	Size of irrep 0 of <Ab|Cd> integrals:     21.912 (MW) /    175.294 (MB)
	Size of irrep 1 of <Ab|Cd> integrals:     13.242 (MW) /    105.939 (MB)
	Size of irrep 2 of <Ab|Cd> integrals:     15.062 (MW) /    120.497 (MB)
	Size of irrep 3 of <Ab|Cd> integrals:     19.705 (MW) /    157.638 (MB)
	Total:                                    69.921 (MW) /    559.368 (MB)

	Size of irrep 0 of <IA|BC> integrals:      1.469 (MW) /     11.748 (MB)
	Size of irrep 1 of <IA|BC> integrals:      0.694 (MW) /      5.550 (MB)
	Size of irrep 2 of <IA|BC> integrals:      0.908 (MW) /      7.266 (MB)
	Size of irrep 3 of <IA|BC> integrals:      1.198 (MW) /      9.588 (MB)
	Total:                                     4.269 (MW) /     34.152 (MB)

	Size of irrep 0 of <ia|bc> integrals:      1.220 (MW) /      9.758 (MB)
	Size of irrep 1 of <ia|bc> integrals:      0.493 (MW) /      3.941 (MB)
	Size of irrep 2 of <ia|bc> integrals:      0.698 (MW) /      5.588 (MB)
	Size of irrep 3 of <ia|bc> integrals:      0.959 (MW) /      7.675 (MB)
	Total:                                     3.370 (MW) /     26.961 (MB)

	Size of irrep 0 of <Ia|Bc> integrals:      1.507 (MW) /     12.058 (MB)
	Size of irrep 1 of <Ia|Bc> integrals:      0.721 (MW) /      5.764 (MB)
	Size of irrep 2 of <Ia|Bc> integrals:      0.939 (MW) /      7.514 (MB)
	Size of irrep 3 of <Ia|Bc> integrals:      1.234 (MW) /      9.872 (MB)
	Total:                                     4.401 (MW) /     35.208 (MB)

	Size of irrep 0 of <iA|bC> integrals:      1.194 (MW) /      9.549 (MB)
	Size of irrep 1 of <iA|bC> integrals:      0.477 (MW) /      3.814 (MB)
	Size of irrep 2 of <iA|bC> integrals:      0.671 (MW) /      5.371 (MB)
	Size of irrep 3 of <iA|bC> integrals:      0.928 (MW) /      7.422 (MB)
	Total:                                     3.270 (MW) /     26.156 (MB)

	Size of irrep 0 of tIjAb amplitudes:       0.094 (MW) /      0.749 (MB)
	Size of irrep 1 of tIjAb amplitudes:       0.015 (MW) /      0.116 (MB)
	Size of irrep 2 of tIjAb amplitudes:       0.047 (MW) /      0.373 (MB)
	Size of irrep 3 of tIjAb amplitudes:       0.053 (MW) /      0.426 (MB)
	Total:                                     0.208 (MW) /      1.664 (MB)

	Nuclear Rep. energy          =     23.95932620441835
	SCF energy                   =   -150.87135437073849
	One-electron energy          =    -85.70318170817359
	Two-electron (AA) energy     =     10.33733181268953
	Two-electron (BB) energy     =      5.49972517707736
	Two-electron (AB) energy     =     21.26950860924341
	Two-electron energy          =     37.10656559901030
	Reference energy             =   -150.87135437074107

*** tstop() called on b1-8.compute.lan at Wed Mar 10 09:24:01 2021
Module time:
	user time   =     206.97 seconds =       3.45 minutes
	system time =       8.89 seconds =       0.15 minutes
	total time  =         27 seconds =       0.45 minutes
Total time:
	user time   =     246.21 seconds =       4.10 minutes
	system time =      10.25 seconds =       0.17 minutes
	total time  =         33 seconds =       0.55 minutes
            **************************
            *                        *
            *        CCENERGY        *
            *                        *
            **************************

    Nuclear Rep. energy (wfn)     =   23.959326204418346
    SCF energy          (wfn)     = -150.871354370738487
    Reference energy    (file100) = -150.871354370741074

    Input parameters:
    -----------------
    Wave function   =     CCSD_T
    Reference wfn   =     UHF
    Brueckner       =     No
    Memory (Mbytes) =     4000.0
    Maxiter         =     50
    R_Convergence   =     1.0e-10
    E_Convergence   =     1.0e-10
    Restart         =     Yes
    DIIS            =     Yes
    AO Basis        =     NONE
    ABCD            =     NEW
    Cache Level     =     2
    Cache Type      =     LRU
    Print Level     =     1
    Num. of threads =     12
    # Amps to Print =     10
    Print MP2 Amps? =     No
    Analyze T2 Amps =     No
    Print Pair Ener =     No
    Local CC        =     No
    SCS-MP2         =     False
    SCSN-MP2        =     False
    SCS-CCSD        =     False

MP2 correlation energy -0.4163719323388134
                Solving CC Amplitude Equations
                ------------------------------
  Iter             Energy              RMS        T1Diag      D1Diag    New D1Diag    D2Diag
  ----     ---------------------    ---------   ----------  ----------  ----------   --------
     0        -0.416371932338813    0.000e+00    0.000000    0.000000    0.000000    0.000000
     1        -0.427304472204298    5.639e-02    0.010440    0.000000    0.000000    0.000000
     2        -0.435402129890600    1.671e-02    0.011003    0.000000    0.000000    0.000000
     3        -0.437466098664035    8.563e-03    0.012881    0.000000    0.000000    0.000000
     4        -0.437343114022662    2.539e-03    0.013269    0.000000    0.000000    0.000000
     5        -0.437323869563896    1.421e-03    0.013448    0.000000    0.000000    0.000000
     6        -0.437353335132065    5.535e-04    0.013490    0.000000    0.000000    0.000000
     7        -0.437358459605563    3.185e-04    0.013496    0.000000    0.000000    0.000000
     8        -0.437358796940985    1.116e-04    0.013496    0.000000    0.000000    0.000000
     9        -0.437360205224557    6.195e-05    0.013499    0.000000    0.000000    0.000000
    10        -0.437358217541746    3.076e-05    0.013502    0.000000    0.000000    0.000000
    11        -0.437358480082177    1.543e-05    0.013503    0.000000    0.000000    0.000000
    12        -0.437358437275206    5.910e-06    0.013504    0.000000    0.000000    0.000000
    13        -0.437358492211584    2.020e-06    0.013504    0.000000    0.000000    0.000000
    14        -0.437358571536710    8.248e-07    0.013504    0.000000    0.000000    0.000000
    15        -0.437358578770486    2.443e-07    0.013504    0.000000    0.000000    0.000000
    16        -0.437358579966147    1.269e-07    0.013504    0.000000    0.000000    0.000000
    17        -0.437358581277528    4.420e-08    0.013504    0.000000    0.000000    0.000000
    18        -0.437358580421123    2.139e-08    0.013504    0.000000    0.000000    0.000000

      * MP2 total energy                      = -151.287726303079893
      * CCSD total energy                     = -151.308712951012694
      * CCSD(T) total energy                     = -151.321029070029653
*** Psi4 exiting successfully. Buy a developer a beer!
