                               Psi4 1.3.2 release

  ==> Input File <==

--------------------------------------------------------------------------
memory 4 GB

molecule  {
0 3
O   -0.000000000000    0.000000000000   -1.464477094300
H    0.000000000000   -0.734514175600   -0.845583954200
H   -0.000000000000    0.734514175600   -0.845583954200
O   -0.000000000000    0.000000000000    1.571036047100
}
set {
basis aug-cc-pvtz
reference uhf
e_convergence 10
scf_type pk
freeze_core true
}

set ccenergy {
e_convergence 10
r_convergence 10
}

e = energy('ccsd(t)')

print_out('Stephenergy {}'.format(e))

--------------------------------------------------------------------------

    Molecular point group: c2v

    Geometry (in Angstrom), charge = 0, multiplicity = 3:

       Center              X                  Y                   Z               Mass
    ------------   -----------------  -----------------  -----------------  -----------------
         O            0.000000000000     0.000000000000    -1.464477094306    15.994914619570
         H            0.000000000000    -0.734514175600    -0.845583954206     1.007825032230
         H           -0.000000000000     0.734514175600    -0.845583954206     1.007825032230
         O            0.000000000000     0.000000000000     1.571036047094    15.994914619570

  Charge       = 0
  Multiplicity = 3
  Basis Set: AUG-CC-PVTZ
    Blend: AUG-CC-PVTZ

    Orbital Energies [Eh]
    ---------------------

    Alpha Occupied:

       1A1   -20.734001     2A1   -20.560886     3A1    -1.444061
       4A1    -1.347418     1B2    -0.735533     1B1    -0.734536
       2B2    -0.698586     5A1    -0.642737     6A1    -0.581103
       2B1    -0.503684

    Alpha Virtual:

       7A1     0.036132     3B2     0.048819     8A1     0.130631
       3B1     0.130637     9A1     0.152816     4B2     0.159154
       4B1     0.185921     5B2     0.186808    10A1     0.191960
      11A1     0.264142     6B2     0.264273     1A2     0.266489
      12A1     0.276012     5B1     0.325748    13A1     0.385539
       7B2     0.387352    14A1     0.456873     8B2     0.475708
       2A2     0.613053     9B2     0.629764    15A1     0.629800
      16A1     0.648553     6B1     0.653978    17A1     0.717447
       3A2     0.733613    10B2     0.751319     7B1     0.764582
      18A1     0.778730     8B1     0.826179    11B2     0.851004
      19A1     0.864047     9B1     0.920943    12B2     0.945119
       4A2     0.951158    20A1     0.962362    21A1     0.998112
      10B1     1.000142    13B2     1.014868    22A1     1.067207
      14B2     1.067825    11B1     1.171107     5A2     1.200252
      23A1     1.206120    24A1     1.223942    15B2     1.267644
      16B2     1.347182    25A1     1.443472     6A2     1.511645
      12B1     1.582734    26A1     1.759724    27A1     1.839030
      17B2     1.867192    18B2     1.959363    13B1     1.975301
      28A1     2.009651    19B2     2.016667     7A2     2.019032
      14B1     2.042294    29A1     2.046828     8A2     2.083520
      30A1     2.102082    20B2     2.120604    15B1     2.159924
      31A1     2.215068    16B1     2.319075    21B2     2.338420
       9A2     2.347652    32A1     2.367023    33A1     2.425293
      34A1     2.498650    22B2     2.536052    17B1     2.569004
      35A1     2.623724    23B2     2.697448    18B1     2.728502
      36A1     2.873900    24B2     2.885915    10A2     2.894397
      25B2     3.690179    37A1     3.727965    19B1     4.054985
      11A2     4.064553    20B1     4.119814    26B2     4.128245
      38A1     4.202790    21B1     4.238256    27B2     4.296481
      39A1     4.300392    12A2     4.390253    22B1     4.427364
      40A1     4.524883    28B2     4.566584    41A1     4.784358
      29B2     4.886930    13A2     5.147470    30B2     5.216939
      31B2     5.237216    42A1     5.379805    23B1     5.548373
      43A1     5.640658    44A1     6.238833    24B1     6.311476
      32B2     6.314692    14A2     6.391628    45A1     6.405442
      25B1     6.427861    33B2     6.494536    46A1     6.520817
      34B2     6.563175    26B1     6.780898    15A2     6.821298
      47A1     6.823929    27B1     6.942516    48A1     6.982212
      35B2     6.982432    49A1     7.045353    28B1     7.143395
      29B1     7.272580    36B2     7.317630    16A2     7.330782
      17A2     7.356468    50A1     7.411116    51A1     7.565961
      52A1     7.870089    37B2     7.975665    38B2     8.849585
      53A1     8.916669    54A1    15.817823

    Beta Occupied:

       1A1   -20.655531     2A1   -20.560964     3A1    -1.347951
       4A1    -1.102027     1B2    -0.699040     5A1    -0.595242
       6A1    -0.539781     1B1    -0.503577

    Beta Virtual:

       2B2     0.032229     7A1     0.037441     2B1     0.046231
       3B2     0.069116     8A1     0.135968     9A1     0.155443
       3B1     0.161221     4B2     0.179397    10A1     0.192494
       4B1     0.225481     5B2     0.227316     6B2     0.265995
       1A2     0.267162    11A1     0.271372    12A1     0.280567
       5B1     0.328103    13A1     0.389356     7B2     0.396574
      14A1     0.458757     8B2     0.476162     9B2     0.630935
       2A2     0.645042    15A1     0.650015    16A1     0.663646
       6B1     0.664113    17A1     0.718413     3A2     0.734751
      10B2     0.766065     7B1     0.769537    18A1     0.793388
      19A1     0.867963     8B1     0.908173    11B2     0.939219
       9B1     0.940988     4A2     0.953887    12B2     0.956894
      20A1     0.964266    21A1     1.003688    13B2     1.037702
      10B1     1.040287    22A1     1.070026    14B2     1.080761
      11B1     1.185090     5A2     1.201395    23A1     1.215862
      24A1     1.262036    15B2     1.267810    16B2     1.365480
      25A1     1.461244     6A2     1.512016    12B1     1.583210
      26A1     1.781772    27A1     1.844880    17B2     1.868644
      18B2     1.972660    13B1     2.012335    28A1     2.037734
      19B2     2.040497    14B1     2.072142     7A2     2.083760
      29A1     2.106946    20B2     2.180517     8A2     2.188281
      30A1     2.192625    15B1     2.213505    31A1     2.257799
      16B1     2.329814     9A2     2.353452    21B2     2.367304
      32A1     2.373612    33A1     2.438417    34A1     2.500891
      22B2     2.544355    17B1     2.573807    35A1     2.629099
      23B2     2.698481    18B1     2.728711    36A1     2.874808
      24B2     2.887102    10A2     2.894485    25B2     3.691147
      37A1     3.728784    11A2     4.064702    19B1     4.112719
      38A1     4.203553    20B1     4.221933    21B1     4.249383
      26B2     4.292518    27B2     4.297541    39A1     4.320181
      12A2     4.390326    22B1     4.428315    40A1     4.551522
      28B2     4.568638    41A1     4.785488    29B2     4.887754
      13A2     5.147530    30B2     5.216995    31B2     5.237449
      42A1     5.380266    23B1     5.548391    43A1     5.640957
      44A1     6.245553    24B1     6.420013    32B2     6.422773
      14A2     6.468042    45A1     6.477700    25B1     6.481705
      33B2     6.503539    46A1     6.565528    34B2     6.611133
      26B1     6.788512    47A1     6.984507    15A2     7.009627
      48A1     7.017408    27B1     7.047595    35B2     7.090920
      49A1     7.119970    28B1     7.144901    29B1     7.272741
      36B2     7.318087    16A2     7.330904    17A2     7.356639
      50A1     7.412075    51A1     7.567583    52A1     7.870316
      37B2     7.975692    38B2     8.849431    53A1     8.996585
      54A1    15.817839

    Final Occupation by Irrep:
             A1    A2    B1    B2
    DOCC [     6,    0,    1,    1 ]
    SOCC [     0,    0,    1,    1 ]

  @UHF Final Energy:  -150.87148117951352

   => Energetics <=

    Nuclear Repulsion Energy =             23.6845562805473975
    One-Electron Energy =                -255.1254166956385347
    Two-Electron Energy =                  80.5693792355776139
    Total Energy =                       -150.8714811795135233

  UHF NO Occupations:
  HONO-2 :    6 A1 1.9970843
  HONO-1 :    2 B1 1.0000000
  HONO-0 :    2 B2 1.0000000
  LUNO+0 :    7 A1 0.0029157
  LUNO+1 :    8 A1 0.0016077
  LUNO+2 :    9 A1 0.0000024
  LUNO+3 :   10 A1 0.0000020

Computation Completed

Properties will be evaluated at   0.000000,   0.000000,   0.000000 [a0]

Properties computed using the SCF density matrix

  Nuclear Dipole Moment: [e a0]
     X:     0.0000      Y:     0.0000      Z:    -1.5849

  Electronic Dipole Moment: [e a0]
     X:     0.0000      Y:     0.0000      Z:     2.4627

  Dipole Moment: [e a0]
     X:     0.0000      Y:     0.0000      Z:     0.8778     Total:     0.8778

  Dipole Moment: [D]
     X:     0.0000      Y:     0.0000      Z:     2.2311     Total:     2.2311

*** tstop() called on b1-8.compute.lan at Wed Mar 10 09:27:52 2021
Module time:
	user time   =      35.17 seconds =       0.59 minutes
	system time =       0.93 seconds =       0.02 minutes
	total time  =          4 seconds =       0.07 minutes
Total time:
	user time   =      35.17 seconds =       0.59 minutes
	system time =       0.93 seconds =       0.02 minutes
	total time  =          4 seconds =       0.07 minutes
 MINTS: Wrapper to libmints.
   by Justin Turney

   Calculation information:
      Number of threads:                12
      Number of atoms:                   4
      Number of AO shells:              46
      Number of SO shells:              37
      Number of primitives:             82
      Number of atomic orbitals:       160
      Number of basis functions:       138

      Number of irreps:                  4
      Integral cutoff                 0.00e+00
      Number of functions per irrep: [  54   17   29   38 ]

 OEINTS: Overlap, kinetic, potential, dipole, and quadrupole integrals
         stored in file 35.

      Computing two-electron integrals...done
      Computed 11330557 non-zero two-electron integrals.
        Stored in file 33.

*** tstart() called on b1-8.compute.lan
*** at Wed Mar 10 09:27:54 2021

	Wfn Parameters:
	--------------------
	Wavefunction         = CCSD_T
	Number of irreps     = 4
	Number of MOs        = 138
	Number of active MOs = 136
	AO-Basis             = NONE
	Semicanonical        = false
	Reference            = UHF
	Print Level          = 1

	IRREP	# MOs	# FZDC	# DOCC	# SOCC	# VIRT	# FZVR
	-----	-----	------	------	------	------	------
	 A1	   54	    2	    4	    0	    48	    0
	 A2	   17	    0	    0	    0	    17	    0
	 B1	   29	    0	    1	    1	    27	    0
	 B2	   38	    0	    1	    1	    36	    0
	Transforming integrals...
	IWL integrals will be deleted.
	(OO|OO)...
	Presorting SO-basis two-electron integrals.
	Sorting File: SO Ints (nn|nn) nbuckets = 1
	Transforming the one-electron integrals and constructing Fock matrices
	Starting AA/AB first half-transformation.
	Sorting AA/AB half-transformed integrals.
	Starting BB first half-transformation.
	Sorting BB half-transformed integrals.
	First half integral transformation complete.
	Starting AA second half-transformation.
	Starting AB second half-transformation.
	Starting BB second half-transformation.
	Two-electron integral transformation complete.
	(OO|OV)...
	Starting AA second half-transformation.
	Starting AB second half-transformation.
	Starting BB second half-transformation.
	Two-electron integral transformation complete.
	(OO|VV)...
	Starting AA second half-transformation.
	Starting AB second half-transformation.
	Starting BB second half-transformation.
	Two-electron integral transformation complete.
	(OV|OO)...
	Starting AA/AB first half-transformation.
	Sorting AA/AB half-transformed integrals.
	Starting BB first half-transformation.
	Sorting BB half-transformed integrals.
	First half integral transformation complete.
	Starting AA second half-transformation.
	Starting AB second half-transformation.
	Starting BB second half-transformation.
	Two-electron integral transformation complete.
	(OV|OV)...
	Starting AA second half-transformation.
	Starting AB second half-transformation.
	Starting BB second half-transformation.
	Two-electron integral transformation complete.
	(OV|VV)...
	Starting AA second half-transformation.
	Starting AB second half-transformation.
	Starting BB second half-transformation.
	Two-electron integral transformation complete.
	(VV|OO)...
	Starting AA/AB first half-transformation.
	Sorting AA/AB half-transformed integrals.
	Starting BB first half-transformation.
	Sorting BB half-transformed integrals.
	First half integral transformation complete.
	Starting AA second half-transformation.
	Starting AB second half-transformation.
	Starting BB second half-transformation.
	Two-electron integral transformation complete.
	(VV|OV)...
	Starting AA second half-transformation.
	Starting AB second half-transformation.
	Starting BB second half-transformation.
	Two-electron integral transformation complete.
	(VV|VV)...
	Starting AA second half-transformation.
	Starting AB second half-transformation.
	Starting BB second half-transformation.
	Two-electron integral transformation complete.
	Frozen core energy     =   -126.13407419471324

	Size of irrep 0 of <AB|CD> integrals:      5.040 (MW) /     40.320 (MB)
	Size of irrep 1 of <AB|CD> integrals:      3.197 (MW) /     25.576 (MB)
	Size of irrep 2 of <AB|CD> integrals:      3.640 (MW) /     29.124 (MB)
	Size of irrep 3 of <AB|CD> integrals:      4.783 (MW) /     38.264 (MB)
	Total:                                    16.660 (MW) /    133.283 (MB)

	Size of irrep 0 of <ab|cd> integrals:      5.327 (MW) /     42.615 (MB)
	Size of irrep 1 of <ab|cd> integrals:      3.430 (MW) /     27.439 (MB)
	Size of irrep 2 of <ab|cd> integrals:      3.893 (MW) /     31.142 (MB)
	Size of irrep 3 of <ab|cd> integrals:      5.072 (MW) /     40.572 (MB)
	Total:                                    17.721 (MW) /    141.768 (MB)

	Size of irrep 0 of <Ab|Cd> integrals:     21.912 (MW) /    175.294 (MB)
	Size of irrep 1 of <Ab|Cd> integrals:     13.242 (MW) /    105.939 (MB)
	Size of irrep 2 of <Ab|Cd> integrals:     15.062 (MW) /    120.497 (MB)
	Size of irrep 3 of <Ab|Cd> integrals:     19.705 (MW) /    157.638 (MB)
	Total:                                    69.921 (MW) /    559.368 (MB)

	Size of irrep 0 of <IA|BC> integrals:      1.469 (MW) /     11.748 (MB)
	Size of irrep 1 of <IA|BC> integrals:      0.694 (MW) /      5.550 (MB)
	Size of irrep 2 of <IA|BC> integrals:      0.908 (MW) /      7.266 (MB)
	Size of irrep 3 of <IA|BC> integrals:      1.198 (MW) /      9.588 (MB)
	Total:                                     4.269 (MW) /     34.152 (MB)

	Size of irrep 0 of <ia|bc> integrals:      1.220 (MW) /      9.758 (MB)
	Size of irrep 1 of <ia|bc> integrals:      0.493 (MW) /      3.941 (MB)
	Size of irrep 2 of <ia|bc> integrals:      0.698 (MW) /      5.588 (MB)
	Size of irrep 3 of <ia|bc> integrals:      0.959 (MW) /      7.675 (MB)
	Total:                                     3.370 (MW) /     26.961 (MB)

	Size of irrep 0 of <Ia|Bc> integrals:      1.507 (MW) /     12.058 (MB)
	Size of irrep 1 of <Ia|Bc> integrals:      0.721 (MW) /      5.764 (MB)
	Size of irrep 2 of <Ia|Bc> integrals:      0.939 (MW) /      7.514 (MB)
	Size of irrep 3 of <Ia|Bc> integrals:      1.234 (MW) /      9.872 (MB)
	Total:                                     4.401 (MW) /     35.208 (MB)

	Size of irrep 0 of <iA|bC> integrals:      1.194 (MW) /      9.549 (MB)
	Size of irrep 1 of <iA|bC> integrals:      0.477 (MW) /      3.814 (MB)
	Size of irrep 2 of <iA|bC> integrals:      0.671 (MW) /      5.371 (MB)
	Size of irrep 3 of <iA|bC> integrals:      0.928 (MW) /      7.422 (MB)
	Total:                                     3.270 (MW) /     26.156 (MB)

	Size of irrep 0 of tIjAb amplitudes:       0.094 (MW) /      0.749 (MB)
	Size of irrep 1 of tIjAb amplitudes:       0.015 (MW) /      0.116 (MB)
	Size of irrep 2 of tIjAb amplitudes:       0.047 (MW) /      0.373 (MB)
	Size of irrep 3 of tIjAb amplitudes:       0.053 (MW) /      0.426 (MB)
	Total:                                     0.208 (MW) /      1.664 (MB)

	Nuclear Rep. energy          =     23.68455628054740
	SCF energy                   =   -150.87148117951352
	One-electron energy          =    -85.36865127221662
	Two-electron (AA) energy     =     10.28822381750156
	Two-electron (BB) energy     =      5.47199384234417
	Two-electron (AB) energy     =     21.18647034702040
	Two-electron energy          =     36.94668800686613
	Reference energy             =   -150.87148117951634

*** tstop() called on b1-8.compute.lan at Wed Mar 10 09:28:15 2021
Module time:
	user time   =     157.34 seconds =       2.62 minutes
	system time =       7.72 seconds =       0.13 minutes
	total time  =         21 seconds =       0.35 minutes
Total time:
	user time   =     197.81 seconds =       3.30 minutes
	system time =       8.97 seconds =       0.15 minutes
	total time  =         27 seconds =       0.45 minutes
            **************************
            *                        *
            *        CCENERGY        *
            *                        *
            **************************

    Nuclear Rep. energy (wfn)     =   23.684556280547397
    SCF energy          (wfn)     = -150.871481179513523
    Reference energy    (file100) = -150.871481179516337

    Input parameters:
    -----------------
    Wave function   =     CCSD_T
    Reference wfn   =     UHF
    Brueckner       =     No
    Memory (Mbytes) =     4000.0
    Maxiter         =     50
    R_Convergence   =     1.0e-10
    E_Convergence   =     1.0e-10
    Restart         =     Yes
    DIIS            =     Yes
    AO Basis        =     NONE
    ABCD            =     NEW
    Cache Level     =     2
    Cache Type      =     LRU
    Print Level     =     1
    Num. of threads =     12
    # Amps to Print =     10
    Print MP2 Amps? =     No
    Analyze T2 Amps =     No
    Print Pair Ener =     No
    Local CC        =     No
    SCS-MP2         =     False
    SCSN-MP2        =     False
    SCS-CCSD        =     False

MP2 correlation energy -0.4166410809018132
                Solving CC Amplitude Equations
                ------------------------------
  Iter             Energy              RMS        T1Diag      D1Diag    New D1Diag    D2Diag
  ----     ---------------------    ---------   ----------  ----------  ----------   --------
     0        -0.416641080901813    0.000e+00    0.000000    0.000000    0.000000    0.000000
     1        -0.427461773416968    5.665e-02    0.010479    0.000000    0.000000    0.000000
     2        -0.435601642458787    1.682e-02    0.011028    0.000000    0.000000    0.000000
     3        -0.437687695548772    8.584e-03    0.012908    0.000000    0.000000    0.000000
     4        -0.437564125589891    2.532e-03    0.013290    0.000000    0.000000    0.000000
     5        -0.437545717142479    1.393e-03    0.013462    0.000000    0.000000    0.000000
     6        -0.437574241187783    5.405e-04    0.013500    0.000000    0.000000    0.000000
     7        -0.437579306639604    3.037e-04    0.013502    0.000000    0.000000    0.000000
     8        -0.437579730189627    1.022e-04    0.013500    0.000000    0.000000    0.000000
     9        -0.437581138184499    5.648e-05    0.013503    0.000000    0.000000    0.000000
    10        -0.437579278331239    2.826e-05    0.013505    0.000000    0.000000    0.000000
    11        -0.437579497883946    1.474e-05    0.013506    0.000000    0.000000    0.000000
    12        -0.437579450179384    5.835e-06    0.013507    0.000000    0.000000    0.000000
    13        -0.437579503090063    2.025e-06    0.013507    0.000000    0.000000    0.000000
    14        -0.437579578772341    8.234e-07    0.013507    0.000000    0.000000    0.000000
    15        -0.437579585322742    2.375e-07    0.013507    0.000000    0.000000    0.000000
    16        -0.437579586407513    1.247e-07    0.013507    0.000000    0.000000    0.000000
    17        -0.437579587708507    4.216e-08    0.013507    0.000000    0.000000    0.000000
    18        -0.437579586934963    2.016e-08    0.013507    0.000000    0.000000    0.000000

      * MP2 total energy                      = -151.288122260418163
      * CCSD total energy                     = -151.309060766308590
      * CCSD(T) total energy                     = -151.321408392914975
*** Psi4 exiting successfully. Buy a developer a beer!
