                               Psi4 1.3.2 release

  ==> Input File <==

--------------------------------------------------------------------------
memory 4 GB

molecule  {
0 3
O    0.000000000000    0.000000000000   -1.233251413313
H    0.000000000000   -0.758665699200   -0.640678442094
H   -0.000000000000    0.758665699200   -0.640678442094
O    0.000000000000    0.000000000000    1.313988545946
}
set {
basis aug-cc-pvtz
reference uhf
e_convergence 10
scf_type pk
freeze_core true
}

set ccenergy {
e_convergence 10
r_convergence 10
}

e = energy('ccsd(t)')

print_out('Stephenergy {}'.format(e))

--------------------------------------------------------------------------

    Molecular point group: c2v

    Geometry (in Angstrom), charge = 0, multiplicity = 3:

       Center              X                  Y                   Z               Mass
    ------------   -----------------  -----------------  -----------------  -----------------
         O           -0.000000000000     0.000000000000    -1.233251413313    15.994914619570
         H            0.000000000000    -0.758665699200    -0.640678442094     1.007825032230
         H           -0.000000000000     0.758665699200    -0.640678442094     1.007825032230
         O           -0.000000000000     0.000000000000     1.313988545946    15.994914619570

  Charge       = 0
  Multiplicity = 3
  Basis Set: AUG-CC-PVTZ
    Blend: AUG-CC-PVTZ

    Orbital Energies [Eh]
    ---------------------

    Alpha Occupied:

       1A1   -20.735517     2A1   -20.567799     3A1    -1.450122
       4A1    -1.354321     5A1    -0.749013     1B1    -0.737509
       1B2    -0.718331     2B2    -0.636893     6A1    -0.581397
       2B1    -0.511313

    Alpha Virtual:

       7A1     0.036804     3B2     0.050269     8A1     0.118743
       3B1     0.130438     9A1     0.156293     4B2     0.165990
       4B1     0.190396     5B2     0.191276    10A1     0.193135
       1A2     0.263504    11A1     0.264021     6B2     0.275683
      12A1     0.291046     5B1     0.337299     7B2     0.395279
      13A1     0.407094    14A1     0.454131     8B2     0.475665
       9B2     0.630471     2A2     0.647472     6B1     0.653236
      15A1     0.659370    16A1     0.687908    17A1     0.711780
       3A2     0.723468    18A1     0.735806    10B2     0.767394
       7B1     0.791091     8B1     0.844497    19A1     0.886164
      11B2     0.889305     9B1     0.922735    12B2     0.945321
      20A1     0.981907     4A2     0.986811    21A1     1.022927
      10B1     1.032131    13B2     1.059711    22A1     1.084460
      14B2     1.136244    23A1     1.151531     5A2     1.211914
      11B1     1.227051    24A1     1.246063    15B2     1.247886
      16B2     1.447401     6A2     1.510969    25A1     1.570938
      12B1     1.577809    17B2     1.757368    26A1     1.811965
      27A1     1.859478    18B2     1.945967    13B1     2.005715
      28A1     2.036632    14B1     2.042251     7A2     2.076497
      19B2     2.082742    29A1     2.094227    30A1     2.174081
      15B1     2.178667     8A2     2.196233    31A1     2.215312
      20B2     2.221231     9A2     2.376521    32A1     2.394134
      16B1     2.438968    21B2     2.459531    33A1     2.470717
      17B1     2.513614    22B2     2.518536    34A1     2.555253
      18B1     2.732724    23B2     2.755389    35A1     2.757445
      10A2     2.882551    36A1     2.894087    24B2     2.952027
      25B2     3.686611    37A1     3.836579    11A2     4.034442
      19B1     4.078374    20B1     4.109123    38A1     4.210899
      26B2     4.236989    21B1     4.311248    27B2     4.335090
      12A2     4.380266    22B1     4.447845    39A1     4.488244
      40A1     4.566870    28B2     4.673879    41A1     4.753453
      29B2     4.911882    13A2     5.152133    30B2     5.161849
      31B2     5.266918    42A1     5.368264    23B1     5.516430
      43A1     5.688282    44A1     6.236874    24B1     6.392318
      32B2     6.402025    25B1     6.435888    14A2     6.453002
      45A1     6.471862    33B2     6.531406    46A1     6.612190
      34B2     6.730201    26B1     6.771889    47A1     6.879054
      27B1     6.880664    15A2     6.895190    48A1     6.965321
      49A1     6.991106    35B2     7.012898    28B1     7.169364
      29B1     7.259924    16A2     7.308910    17A2     7.357875
      36B2     7.369975    50A1     7.384369    51A1     7.597422
      37B2     7.950664    52A1     7.987646    38B2     8.798786
      53A1     9.946893    54A1    15.768755

    Beta Occupied:

       1A1   -20.656613     2A1   -20.566145     3A1    -1.351167
       4A1    -1.105990     1B2    -0.716099     5A1    -0.581203
       2B2    -0.547822     1B1    -0.508887

    Beta Virtual:

       6A1     0.037768     2B1     0.046018     3B2     0.050624
       7A1     0.052402     8A1     0.142071     3B1     0.159767
       4B2     0.167917     9A1     0.181340     5B2     0.193571
      10A1     0.194835     4B1     0.226230     1A2     0.263794
      11A1     0.267209     6B2     0.275971    12A1     0.299153
       5B1     0.346177     7B2     0.397604    13A1     0.433937
      14A1     0.459499     8B2     0.475824     9B2     0.630153
       2A2     0.661789     6B1     0.672105    15A1     0.674209
      16A1     0.711965    17A1     0.715273     3A2     0.723769
      10B2     0.783480    18A1     0.788794     7B1     0.824550
      19A1     0.895888    11B2     0.901573     8B1     0.920175
       9B1     0.935903    12B2     0.950138     4A2     0.988748
      20A1     0.988936    21A1     1.036236    13B2     1.060449
      10B1     1.060821    22A1     1.111108    14B2     1.145594
      23A1     1.208203     5A2     1.213133    15B2     1.248259
      11B1     1.249455    24A1     1.256833    16B2     1.453820
       6A2     1.511126    12B1     1.578641    25A1     1.589979
      17B2     1.762952    26A1     1.816866    27A1     1.902374
      18B2     1.948770    13B1     2.029910    19B2     2.097531
      28A1     2.101505    14B1     2.111245    29A1     2.144787
       7A2     2.148031     8A2     2.222970    30A1     2.233594
      31A1     2.244608    15B1     2.260686    20B2     2.291742
       9A2     2.385419    32A1     2.421486    16B1     2.467273
      21B2     2.474352    33A1     2.494212    17B1     2.514793
      22B2     2.526595    34A1     2.567783    18B1     2.733916
      23B2     2.758856    35A1     2.771306    10A2     2.883021
      36A1     2.902855    24B2     2.954502    25B2     3.687372
      37A1     3.846234    11A2     4.033985    19B1     4.109703
      20B1     4.228093    38A1     4.247379    26B2     4.255797
      21B1     4.327678    27B2     4.359548    12A2     4.379882
      22B1     4.452381    39A1     4.512452    40A1     4.660612
      28B2     4.676478    41A1     4.756084    29B2     4.913770
      13A2     5.152359    30B2     5.163307    31B2     5.268363
      42A1     5.371349    23B1     5.516985    43A1     5.689921
      44A1     6.242099    24B1     6.449034    32B2     6.459618
      14A2     6.529069    33B2     6.534158    25B1     6.542109
      45A1     6.547534    46A1     6.690364    26B1     6.774813
      34B2     6.793828    47A1     6.965482    15A2     7.007867
      48A1     7.017242    27B1     7.064806    49A1     7.118132
      35B2     7.121639    28B1     7.172190    29B1     7.263519
      16A2     7.310248    17A2     7.359223    36B2     7.371435
      50A1     7.395521    51A1     7.603710    37B2     7.952346
      52A1     7.991404    38B2     8.801064    53A1    10.017647
      54A1    15.769896

    Final Occupation by Irrep:
             A1    A2    B1    B2
    DOCC [     5,    0,    1,    2 ]
    SOCC [     1,    0,    1,    0 ]

  @UHF Final Energy:  -150.86607877969013

   => Energetics <=

    Nuclear Repulsion Energy =             26.4778016161093035
    One-Electron Energy =                -260.6116206119088474
    Two-Electron Energy =                  83.2677402161094165
    Total Energy =                       -150.8660787796901275

  UHF NO Occupations:
  HONO-2 :    5 A1 1.9970600
  HONO-1 :    2 B1 1.0000000
  HONO-0 :    6 A1 1.0000000
  LUNO+0 :    7 A1 0.0029400
  LUNO+1 :    3 B2 0.0017575
  LUNO+2 :    8 A1 0.0002831
  LUNO+3 :    3 B1 0.0000177

Computation Completed

Properties will be evaluated at   0.000000,   0.000000,   0.000000 [a0]

Properties computed using the SCF density matrix

  Nuclear Dipole Moment: [e a0]
     X:    -0.0000      Y:     0.0000      Z:    -1.2008

  Electronic Dipole Moment: [e a0]
     X:     0.0000      Y:     0.0000      Z:     2.0216

  Dipole Moment: [e a0]
     X:    -0.0000      Y:     0.0000      Z:     0.8208     Total:     0.8208

  Dipole Moment: [D]
     X:    -0.0000      Y:     0.0000      Z:     2.0863     Total:     2.0863

*** tstop() called on c5-7.compute.lan at Wed Mar 10 09:12:57 2021
Module time:
	user time   =      43.94 seconds =       0.73 minutes
	system time =       0.87 seconds =       0.01 minutes
	total time  =          7 seconds =       0.12 minutes
Total time:
	user time   =      43.94 seconds =       0.73 minutes
	system time =       0.87 seconds =       0.01 minutes
	total time  =          7 seconds =       0.12 minutes
 MINTS: Wrapper to libmints.
   by Justin Turney

   Calculation information:
      Number of threads:                12
      Number of atoms:                   4
      Number of AO shells:              46
      Number of SO shells:              37
      Number of primitives:             82
      Number of atomic orbitals:       160
      Number of basis functions:       138

      Number of irreps:                  4
      Integral cutoff                 0.00e+00
      Number of functions per irrep: [  54   17   29   38 ]

 OEINTS: Overlap, kinetic, potential, dipole, and quadrupole integrals
         stored in file 35.

      Computing two-electron integrals...done
      Computed 11511360 non-zero two-electron integrals.
        Stored in file 33.

*** tstart() called on c5-7.compute.lan
*** at Wed Mar 10 09:12:59 2021

	Wfn Parameters:
	--------------------
	Wavefunction         = CCSD_T
	Number of irreps     = 4
	Number of MOs        = 138
	Number of active MOs = 136
	AO-Basis             = NONE
	Semicanonical        = false
	Reference            = UHF
	Print Level          = 1

	IRREP	# MOs	# FZDC	# DOCC	# SOCC	# VIRT	# FZVR
	-----	-----	------	------	------	------	------
	 A1	   54	    2	    3	    1	    48	    0
	 A2	   17	    0	    0	    0	    17	    0
	 B1	   29	    0	    1	    1	    27	    0
	 B2	   38	    0	    2	    0	    36	    0
	Transforming integrals...
	IWL integrals will be deleted.
	(OO|OO)...
	Presorting SO-basis two-electron integrals.
	Sorting File: SO Ints (nn|nn) nbuckets = 1
	Transforming the one-electron integrals and constructing Fock matrices
	Starting AA/AB first half-transformation.
	Sorting AA/AB half-transformed integrals.
	Starting BB first half-transformation.
	Sorting BB half-transformed integrals.
	First half integral transformation complete.
	Starting AA second half-transformation.
	Starting AB second half-transformation.
	Starting BB second half-transformation.
	Two-electron integral transformation complete.
	(OO|OV)...
	Starting AA second half-transformation.
	Starting AB second half-transformation.
	Starting BB second half-transformation.
	Two-electron integral transformation complete.
	(OO|VV)...
	Starting AA second half-transformation.
	Starting AB second half-transformation.
	Starting BB second half-transformation.
	Two-electron integral transformation complete.
	(OV|OO)...
	Starting AA/AB first half-transformation.
	Sorting AA/AB half-transformed integrals.
	Starting BB first half-transformation.
	Sorting BB half-transformed integrals.
	First half integral transformation complete.
	Starting AA second half-transformation.
	Starting AB second half-transformation.
	Starting BB second half-transformation.
	Two-electron integral transformation complete.
	(OV|OV)...
	Starting AA second half-transformation.
	Starting AB second half-transformation.
	Starting BB second half-transformation.
	Two-electron integral transformation complete.
	(OV|VV)...
	Starting AA second half-transformation.
	Starting AB second half-transformation.
	Starting BB second half-transformation.
	Two-electron integral transformation complete.
	(VV|OO)...
	Starting AA/AB first half-transformation.
	Sorting AA/AB half-transformed integrals.
	Starting BB first half-transformation.
	Sorting BB half-transformed integrals.
	First half integral transformation complete.
	Starting AA second half-transformation.
	Starting AB second half-transformation.
	Starting BB second half-transformation.
	Two-electron integral transformation complete.
	(VV|OV)...
	Starting AA second half-transformation.
	Starting AB second half-transformation.
	Starting BB second half-transformation.
	Two-electron integral transformation complete.
	(VV|VV)...
	Starting AA second half-transformation.
	Starting AB second half-transformation.
	Starting BB second half-transformation.
	Two-electron integral transformation complete.
	Frozen core energy     =   -127.23626503631027

	Size of irrep 0 of <AB|CD> integrals:      5.040 (MW) /     40.320 (MB)
	Size of irrep 1 of <AB|CD> integrals:      3.197 (MW) /     25.576 (MB)
	Size of irrep 2 of <AB|CD> integrals:      3.640 (MW) /     29.124 (MB)
	Size of irrep 3 of <AB|CD> integrals:      4.783 (MW) /     38.264 (MB)
	Total:                                    16.660 (MW) /    133.283 (MB)

	Size of irrep 0 of <ab|cd> integrals:      5.382 (MW) /     43.059 (MB)
	Size of irrep 1 of <ab|cd> integrals:      3.389 (MW) /     27.114 (MB)
	Size of irrep 2 of <ab|cd> integrals:      3.936 (MW) /     31.490 (MB)
	Size of irrep 3 of <ab|cd> integrals:      5.018 (MW) /     40.141 (MB)
	Total:                                    17.726 (MW) /    141.804 (MB)

	Size of irrep 0 of <Ab|Cd> integrals:     22.024 (MW) /    176.194 (MB)
	Size of irrep 1 of <Ab|Cd> integrals:     13.170 (MW) /    105.357 (MB)
	Size of irrep 2 of <Ab|Cd> integrals:     15.140 (MW) /    121.119 (MB)
	Size of irrep 3 of <Ab|Cd> integrals:     19.598 (MW) /    156.787 (MB)
	Total:                                    69.932 (MW) /    559.457 (MB)

	Size of irrep 0 of <IA|BC> integrals:      1.469 (MW) /     11.748 (MB)
	Size of irrep 1 of <IA|BC> integrals:      0.694 (MW) /      5.550 (MB)
	Size of irrep 2 of <IA|BC> integrals:      0.908 (MW) /      7.266 (MB)
	Size of irrep 3 of <IA|BC> integrals:      1.198 (MW) /      9.588 (MB)
	Total:                                     4.269 (MW) /     34.152 (MB)

	Size of irrep 0 of <ia|bc> integrals:      1.178 (MW) /      9.426 (MB)
	Size of irrep 1 of <ia|bc> integrals:      0.527 (MW) /      4.212 (MB)
	Size of irrep 2 of <ia|bc> integrals:      0.663 (MW) /      5.301 (MB)
	Size of irrep 3 of <ia|bc> integrals:      0.999 (MW) /      7.992 (MB)
	Total:                                     3.366 (MW) /     26.931 (MB)

	Size of irrep 0 of <Ia|Bc> integrals:      1.521 (MW) /     12.164 (MB)
	Size of irrep 1 of <Ia|Bc> integrals:      0.711 (MW) /      5.690 (MB)
	Size of irrep 2 of <Ia|Bc> integrals:      0.949 (MW) /      7.595 (MB)
	Size of irrep 3 of <Ia|Bc> integrals:      1.222 (MW) /      9.775 (MB)
	Total:                                     4.403 (MW) /     35.225 (MB)

	Size of irrep 0 of <iA|bC> integrals:      1.140 (MW) /      9.123 (MB)
	Size of irrep 1 of <iA|bC> integrals:      0.512 (MW) /      4.094 (MB)
	Size of irrep 2 of <iA|bC> integrals:      0.634 (MW) /      5.074 (MB)
	Size of irrep 3 of <iA|bC> integrals:      0.978 (MW) /      7.827 (MB)
	Total:                                     3.265 (MW) /     26.118 (MB)

	Size of irrep 0 of tIjAb amplitudes:       0.084 (MW) /      0.676 (MB)
	Size of irrep 1 of tIjAb amplitudes:       0.022 (MW) /      0.174 (MB)
	Size of irrep 2 of tIjAb amplitudes:       0.039 (MW) /      0.311 (MB)
	Size of irrep 3 of tIjAb amplitudes:       0.062 (MW) /      0.496 (MB)
	Total:                                     0.207 (MW) /      1.657 (MB)

	Nuclear Rep. energy          =     26.47780161610930
	SCF energy                   =   -150.86607877969013
	One-electron energy          =    -88.66516459573484
	Two-electron (AA) energy     =     10.86230714761538
	Two-electron (BB) energy     =      5.69987465676280
	Two-electron (AB) energy     =     21.99536743186367
	Two-electron energy          =     38.55754923624185
	Reference energy             =   -150.86607877969396

*** tstop() called on c5-7.compute.lan at Wed Mar 10 09:13:22 2021
Module time:
	user time   =      73.58 seconds =       1.23 minutes
	system time =       9.68 seconds =       0.16 minutes
	total time  =         23 seconds =       0.38 minutes
Total time:
	user time   =     122.21 seconds =       2.04 minutes
	system time =      10.92 seconds =       0.18 minutes
	total time  =         32 seconds =       0.53 minutes
            **************************
            *                        *
            *        CCENERGY        *
            *                        *
            **************************

    Nuclear Rep. energy (wfn)     =   26.477801616109303
    SCF energy          (wfn)     = -150.866078779690127
    Reference energy    (file100) = -150.866078779693964

    Input parameters:
    -----------------
    Wave function   =     CCSD_T
    Reference wfn   =     UHF
    Brueckner       =     No
    Memory (Mbytes) =     4000.0
    Maxiter         =     50
    R_Convergence   =     1.0e-10
    E_Convergence   =     1.0e-10
    Restart         =     Yes
    DIIS            =     Yes
    AO Basis        =     NONE
    ABCD            =     NEW
    Cache Level     =     2
    Cache Type      =     LRU
    Print Level     =     1
    Num. of threads =     12
    # Amps to Print =     10
    Print MP2 Amps? =     No
    Analyze T2 Amps =     No
    Print Pair Ener =     No
    Local CC        =     No
    SCS-MP2         =     False
    SCSN-MP2        =     False
    SCS-CCSD        =     False

MP2 correlation energy -0.4191256895445062
                Solving CC Amplitude Equations
                ------------------------------
  Iter             Energy              RMS        T1Diag      D1Diag    New D1Diag    D2Diag
  ----     ---------------------    ---------   ----------  ----------  ----------   --------
     0        -0.419125689544506    0.000e+00    0.000000    0.000000    0.000000    0.000000
     1        -0.429627649398169    6.128e-02    0.012147    0.000000    0.000000    0.000000
     2        -0.437994621186643    1.865e-02    0.012869    0.000000    0.000000    0.000000
     3        -0.440339010868544    1.248e-02    0.015742    0.000000    0.000000    0.000000
     4        -0.440292376242208    4.825e-03    0.017068    0.000000    0.000000    0.000000
     5        -0.440254622413386    3.309e-03    0.017992    0.000000    0.000000    0.000000
     6        -0.440328848073392    1.283e-03    0.018436    0.000000    0.000000    0.000000
     7        -0.440339546641351    5.955e-04    0.018547    0.000000    0.000000    0.000000
     8        -0.440338494133738    2.278e-04    0.018599    0.000000    0.000000    0.000000
     9        -0.440342228687540    1.231e-04    0.018607    0.000000    0.000000    0.000000
    10        -0.440336465647767    6.377e-05    0.018621    0.000000    0.000000    0.000000
    11        -0.440337092551925    3.069e-05    0.018621    0.000000    0.000000    0.000000
    12        -0.440336901764675    1.208e-05    0.018623    0.000000    0.000000    0.000000
    13        -0.440337101429801    6.370e-06    0.018622    0.000000    0.000000    0.000000
    14        -0.440337325009537    2.546e-06    0.018622    0.000000    0.000000    0.000000
    15        -0.440337326414215    1.089e-06    0.018622    0.000000    0.000000    0.000000
    16        -0.440337332278591    4.775e-07    0.018622    0.000000    0.000000    0.000000
    17        -0.440337333953210    1.630e-07    0.018622    0.000000    0.000000    0.000000
    18        -0.440337331897575    8.152e-08    0.018622    0.000000    0.000000    0.000000

      * MP2 total energy                      = -151.285204469238465
      * CCSD total energy                     = -151.306416111540102
      * CCSD(T) total energy                     = -151.319314295042517
*** Psi4 exiting successfully. Buy a developer a beer!
