                               Psi4 1.3.2 release

  ==> Input File <==

--------------------------------------------------------------------------
memory 4 GB

molecule  {
0 3
O   -1.504254809230   -0.001190138792    0.000000000000
H   -0.551813587211    0.156583733128    0.000000000000
H   -1.894722683441    0.877109410284    0.000000000000
O    1.658408835961   -0.063941926639    0.000000000000
}
set {
basis aug-cc-pvtz
reference uhf
e_convergence 10
scf_type pk
freeze_core true
}

set ccenergy {
e_convergence 10
r_convergence 10
}

e = energy('ccsd(t)')

print_out('Stephenergy {}'.format(e))

--------------------------------------------------------------------------

    Molecular point group: cs

    Geometry (in Angstrom), charge = 0, multiplicity = 3:

       Center              X                  Y                   Z               Mass
    ------------   -----------------  -----------------  -----------------  -----------------
         O           -1.504254809230    -0.001190138792     0.000000000000    15.994914619570
         H           -0.551813587211     0.156583733128     0.000000000000     1.007825032230
         H           -1.894722683441     0.877109410284     0.000000000000     1.007825032230
         O            1.658408835961    -0.063941926639     0.000000000000    15.994914619570

  Charge       = 0
  Multiplicity = 3
  Basis Set: AUG-CC-PVTZ
    Blend: AUG-CC-PVTZ

    Orbital Energies [Eh]
    ---------------------

    Alpha Occupied:

       1Ap   -20.733169     2Ap   -20.558883     3Ap    -1.442502
       4Ap    -1.342245     5Ap    -0.733262     1App   -0.732890
       6Ap    -0.709714     7Ap    -0.634533     8Ap    -0.574563
       2App   -0.501738

    Alpha Virtual:

       9Ap     0.034217    10Ap     0.053468    11Ap     0.128179
       3App    0.132929    12Ap     0.148126    13Ap     0.160765
      14Ap     0.183954     4App    0.186864    15Ap     0.214135
      16Ap     0.241889    17Ap     0.264331     5App    0.286507
      18Ap     0.303960     6App    0.320610    19Ap     0.363960
      20Ap     0.406306    21Ap     0.460560    22Ap     0.568717
       7App    0.602547    23Ap     0.608599    24Ap     0.626980
      25Ap     0.681653     8App    0.709509    26Ap     0.714738
       9App    0.736720    10App    0.748912    27Ap     0.750669
      28Ap     0.811621    11App    0.826000    29Ap     0.836735
      12App    0.890821    30Ap     0.892100    31Ap     0.922816
      32Ap     0.945154    13App    0.947841    33Ap     0.951279
      14App    0.971835    34Ap     0.978536    35Ap     1.043411
      36Ap     1.135775    15App    1.153578    37Ap     1.169550
      38Ap     1.184909    39Ap     1.261419    16App    1.295119
      40Ap     1.316436    17App    1.527200    41Ap     1.587500
      18App    1.597462    42Ap     1.716356    43Ap     1.809236
      44Ap     1.842310    45Ap     1.977376    19App    1.977654
      46Ap     1.978252    20App    2.013163    47Ap     2.017922
      21App    2.048579    48Ap     2.061230    22App    2.122968
      49Ap     2.153078    50Ap     2.175832    23App    2.212930
      24App    2.303037    51Ap     2.310128    52Ap     2.339299
      53Ap     2.414914    25App    2.441131    54Ap     2.460084
      55Ap     2.490438    26App    2.526593    56Ap     2.628642
      57Ap     2.707744    27App    2.727816    58Ap     2.737226
      59Ap     2.860330    60Ap     2.932161    28App    2.943367
      61Ap     3.695843    62Ap     3.890137    29App    4.035036
      30App    4.062691    63Ap     4.074320    31App    4.176796
      64Ap     4.208088    65Ap     4.263316    32App    4.302240
      33App    4.390565    66Ap     4.408855    34App    4.428620
      67Ap     4.445118    68Ap     4.601437    69Ap     4.778024
      70Ap     4.955515    35App    5.152498    71Ap     5.167319
      72Ap     5.297534    73Ap     5.384889    36App    5.521585
      74Ap     5.689199    75Ap     6.186433    37App    6.312275
      76Ap     6.312306    38App    6.375518    77Ap     6.378216
      39App    6.518719    78Ap     6.520529    79Ap     6.559769
      80Ap     6.637435    40App    6.735510    81Ap     6.814348
      41App    6.819920    82Ap     6.918916    42App    6.936713
      83Ap     6.961146    84Ap     7.050920    43App    7.147091
      44App    7.271441    45App    7.322450    85Ap     7.324783
      86Ap     7.362115    46App    7.435474    87Ap     7.644133
      88Ap     7.942730    89Ap     7.958111    90Ap     8.803717
      91Ap     9.518282    92Ap    16.259005

    Beta Occupied:

       1Ap   -20.654381     2Ap   -20.559015     3Ap    -1.342824
       4Ap    -1.100034     5Ap    -0.708881     6Ap    -0.579670
       7Ap    -0.541203     1App   -0.501784

    Beta Virtual:

       8Ap     0.034372     2App    0.049302     9Ap     0.049554
      10Ap     0.055168    11Ap     0.143845    12Ap     0.152955
       3App    0.161280    13Ap     0.178081    14Ap     0.207796
      15Ap     0.225509     4App    0.227158    16Ap     0.250586
      17Ap     0.265570     5App    0.286716    18Ap     0.306100
       6App    0.324367    19Ap     0.367856    20Ap     0.417221
      21Ap     0.461814    22Ap     0.572295    23Ap     0.627717
       7App    0.634938    24Ap     0.640386    25Ap     0.686450
      26Ap     0.715404     8App    0.721541     9App    0.739862
      10App    0.750659    27Ap     0.767115    28Ap     0.817999
      29Ap     0.867837    11App    0.869058    30Ap     0.919906
      12App    0.941812    31Ap     0.941898    13App    0.949909
      32Ap     0.952624    33Ap     0.970097    34Ap     1.017534
      14App    1.020212    35Ap     1.045608    15App    1.156721
      36Ap     1.163802    37Ap     1.172900    38Ap     1.215757
      39Ap     1.264636    16App    1.305726    40Ap     1.325102
      17App    1.527934    41Ap     1.589721    18App    1.598888
      42Ap     1.742634    43Ap     1.814551    44Ap     1.853135
      45Ap     1.986067    46Ap     2.015616    19App    2.015628
      20App    2.053887    47Ap     2.065901    21App    2.171324
      48Ap     2.176153    22App    2.179576    49Ap     2.193913
      50Ap     2.244716    23App    2.249933    24App    2.306442
      51Ap     2.315627    52Ap     2.361898    53Ap     2.419247
      25App    2.443851    54Ap     2.460920    55Ap     2.496767
      26App    2.535076    56Ap     2.635877    57Ap     2.724753
      27App    2.729125    58Ap     2.740752    59Ap     2.862159
      60Ap     2.936533    28App    2.944001    61Ap     3.696545
      62Ap     3.892521    29App    4.037894    30App    4.145446
      63Ap     4.193729    64Ap     4.242253    31App    4.262488
      65Ap     4.275383    32App    4.302293    33App    4.390635
      66Ap     4.412382    34App    4.429284    67Ap     4.489537
      68Ap     4.603972    69Ap     4.779697    70Ap     4.957541
      35App    5.152485    71Ap     5.167631    72Ap     5.297778
      73Ap     5.386089    36App    5.521645    74Ap     5.689538
      75Ap     6.187703    76Ap     6.421128    37App    6.421132
      38App    6.450718    77Ap     6.453435    78Ap     6.535520
      39App    6.572565    79Ap     6.600648    80Ap     6.682301
      40App    6.741440    81Ap     6.920719    41App    7.005048
      82Ap     7.006590    42App    7.045749    83Ap     7.068224
      84Ap     7.130701    43App    7.149784    44App    7.271711
      45App    7.323135    85Ap     7.325111    86Ap     7.362858
      46App    7.435890    87Ap     7.644970    88Ap     7.943452
      89Ap     7.958733    90Ap     8.805266    91Ap     9.593314
      92Ap    16.259273

    Final Occupation by Irrep:
             Ap   App
    DOCC [     7,    1 ]
    SOCC [     1,    1 ]

  @UHF Final Energy:  -150.87435876330224

   => Energetics <=

    Nuclear Repulsion Energy =             22.9007041559495157
    One-Electron Energy =                -253.5988353590406348
    Two-Electron Energy =                  79.8237724397888826
    Total Energy =                       -150.8743587633022400

  UHF NO Occupations:
  HONO-2 :    7 Ap 1.9970277
  HONO-1 :    8 Ap 1.0000000
  HONO-0 :    2App 1.0000000
  LUNO+0 :    9 Ap 0.0029723
  LUNO+1 :   10 Ap 0.0017167
  LUNO+2 :   11 Ap 0.0000024
  LUNO+3 :   12 Ap 0.0000018

Computation Completed

Properties will be evaluated at   0.000000,   0.000000,   0.000000 [a0]

Properties computed using the SCF density matrix

  Nuclear Dipole Moment: [e a0]
     X:    -2.2928      Y:     0.9687      Z:     0.0000

  Electronic Dipole Moment: [e a0]
     X:     2.7571      Y:    -0.2940      Z:     0.0000

  Dipole Moment: [e a0]
     X:     0.4643      Y:     0.6747      Z:     0.0000     Total:     0.8190

  Dipole Moment: [D]
     X:     1.1800      Y:     1.7150      Z:     0.0000     Total:     2.0817

*** tstop() called on d1-14.compute.lan at Tue Mar  9 15:41:10 2021
Module time:
	user time   =      55.65 seconds =       0.93 minutes
	system time =       4.60 seconds =       0.08 minutes
	total time  =          7 seconds =       0.12 minutes
Total time:
	user time   =      55.65 seconds =       0.93 minutes
	system time =       4.60 seconds =       0.08 minutes
	total time  =          7 seconds =       0.12 minutes
 MINTS: Wrapper to libmints.
   by Justin Turney

   Calculation information:
      Number of threads:                12
      Number of atoms:                   4
      Number of AO shells:              46
      Number of SO shells:              46
      Number of primitives:             82
      Number of atomic orbitals:       160
      Number of basis functions:       138

      Number of irreps:                  2
      Integral cutoff                 0.00e+00
      Number of functions per irrep: [  92   46 ]

 OEINTS: Overlap, kinetic, potential, dipole, and quadrupole integrals
         stored in file 35.

      Computing two-electron integrals...done
      Computed 22918643 non-zero two-electron integrals.
        Stored in file 33.

*** tstart() called on d1-14.compute.lan
*** at Tue Mar  9 15:41:15 2021

	Wfn Parameters:
	--------------------
	Wavefunction         = CCSD_T
	Number of irreps     = 2
	Number of MOs        = 138
	Number of active MOs = 136
	AO-Basis             = NONE
	Semicanonical        = false
	Reference            = UHF
	Print Level          = 1

	IRREP	# MOs	# FZDC	# DOCC	# SOCC	# VIRT	# FZVR
	-----	-----	------	------	------	------	------
	 Ap	   92	    2	    5	    1	    84	    0
	 App	   46	    0	    1	    1	    44	    0
	Transforming integrals...
	IWL integrals will be deleted.
	(OO|OO)...
	Presorting SO-basis two-electron integrals.
	Sorting File: SO Ints (nn|nn) nbuckets = 1
	Transforming the one-electron integrals and constructing Fock matrices
	Starting AA/AB first half-transformation.
	Sorting AA/AB half-transformed integrals.
	Starting BB first half-transformation.
	Sorting BB half-transformed integrals.
	First half integral transformation complete.
	Starting AA second half-transformation.
	Starting AB second half-transformation.
	Starting BB second half-transformation.
	Two-electron integral transformation complete.
	(OO|OV)...
	Starting AA second half-transformation.
	Starting AB second half-transformation.
	Starting BB second half-transformation.
	Two-electron integral transformation complete.
	(OO|VV)...
	Starting AA second half-transformation.
	Starting AB second half-transformation.
	Starting BB second half-transformation.
	Two-electron integral transformation complete.
	(OV|OO)...
	Starting AA/AB first half-transformation.
	Sorting AA/AB half-transformed integrals.
	Starting BB first half-transformation.
	Sorting BB half-transformed integrals.
	First half integral transformation complete.
	Starting AA second half-transformation.
	Starting AB second half-transformation.
	Starting BB second half-transformation.
	Two-electron integral transformation complete.
	(OV|OV)...
	Starting AA second half-transformation.
	Starting AB second half-transformation.
	Starting BB second half-transformation.
	Two-electron integral transformation complete.
	(OV|VV)...
	Starting AA second half-transformation.
	Starting AB second half-transformation.
	Starting BB second half-transformation.
	Two-electron integral transformation complete.
	(VV|OO)...
	Starting AA/AB first half-transformation.
	Sorting AA/AB half-transformed integrals.
	Starting BB first half-transformation.
	Sorting BB half-transformed integrals.
	First half integral transformation complete.
	Starting AA second half-transformation.
	Starting AB second half-transformation.
	Starting BB second half-transformation.
	Two-electron integral transformation complete.
	(VV|OV)...
	Starting AA second half-transformation.
	Starting AB second half-transformation.
	Starting BB second half-transformation.
	Two-electron integral transformation complete.
	(VV|VV)...
	Starting AA second half-transformation.
	Starting AB second half-transformation.
	Starting BB second half-transformation.
	Two-electron integral transformation complete.
	Frozen core energy     =   -125.85677230336738

	Size of irrep 0 of <AB|CD> integrals:     19.643 (MW) /    157.141 (MB)
	Size of irrep 1 of <AB|CD> integrals:     13.660 (MW) /    109.283 (MB)
	Total:                                    33.303 (MW) /    266.424 (MB)

	Size of irrep 0 of <ab|cd> integrals:     20.794 (MW) /    166.349 (MB)
	Size of irrep 1 of <ab|cd> integrals:     14.631 (MW) /    117.045 (MB)
	Total:                                    35.424 (MW) /    283.394 (MB)

	Size of irrep 0 of <Ab|Cd> integrals:     83.174 (MW) /    665.395 (MB)
	Size of irrep 1 of <Ab|Cd> integrals:     56.550 (MW) /    452.403 (MB)
	Total:                                   139.725 (MW) /   1117.798 (MB)

	Size of irrep 0 of <IA|BC> integrals:      5.323 (MW) /     42.586 (MB)
	Size of irrep 1 of <IA|BC> integrals:      3.193 (MW) /     25.547 (MB)
	Total:                                     8.517 (MW) /     68.133 (MB)

	Size of irrep 0 of <ia|bc> integrals:      4.348 (MW) /     34.780 (MB)
	Size of irrep 1 of <ia|bc> integrals:      2.372 (MW) /     18.972 (MB)
	Total:                                     6.719 (MW) /     53.752 (MB)

	Size of irrep 0 of <Ia|Bc> integrals:      5.472 (MW) /     43.776 (MB)
	Size of irrep 1 of <Ia|Bc> integrals:      3.309 (MW) /     26.470 (MB)
	Total:                                     8.781 (MW) /     70.246 (MB)

	Size of irrep 0 of <iA|bC> integrals:      4.232 (MW) /     33.853 (MB)
	Size of irrep 1 of <iA|bC> integrals:      2.286 (MW) /     18.289 (MB)
	Total:                                     6.518 (MW) /     52.142 (MB)

	Size of irrep 0 of tIjAb amplitudes:       0.292 (MW) /      2.335 (MB)
	Size of irrep 1 of tIjAb amplitudes:       0.120 (MW) /      0.963 (MB)
	Total:                                     0.412 (MW) /      3.297 (MB)

	Nuclear Rep. energy          =     22.90070415594952
	SCF energy                   =   -150.87435876330224
	One-electron energy          =    -84.39073885688876
	Two-electron (AA) energy     =     10.13609206469005
	Two-electron (BB) energy     =      5.39153407857326
	Two-electron (AB) energy     =     20.94482209774020
	Two-electron energy          =     36.47244824100351
	Reference energy             =   -150.87435876330312

*** tstop() called on d1-14.compute.lan at Tue Mar  9 15:42:32 2021
Module time:
	user time   =     423.59 seconds =       7.06 minutes
	system time =      73.68 seconds =       1.23 minutes
	total time  =         77 seconds =       1.28 minutes
Total time:
	user time   =     485.72 seconds =       8.10 minutes
	system time =      79.21 seconds =       1.32 minutes
	total time  =         89 seconds =       1.48 minutes
            **************************
            *                        *
            *        CCENERGY        *
            *                        *
            **************************

    Nuclear Rep. energy (wfn)     =   22.900704155949516
    SCF energy          (wfn)     = -150.874358763302240
    Reference energy    (file100) = -150.874358763303121

    Input parameters:
    -----------------
    Wave function   =     CCSD_T
    Reference wfn   =     UHF
    Brueckner       =     No
    Memory (Mbytes) =     4000.0
    Maxiter         =     50
    R_Convergence   =     1.0e-10
    E_Convergence   =     1.0e-10
    Restart         =     Yes
    DIIS            =     Yes
    AO Basis        =     NONE
    ABCD            =     NEW
    Cache Level     =     2
    Cache Type      =     LRU
    Print Level     =     1
    Num. of threads =     12
    # Amps to Print =     10
    Print MP2 Amps? =     No
    Analyze T2 Amps =     No
    Print Pair Ener =     No
    Local CC        =     No
    SCS-MP2         =     False
    SCSN-MP2        =     False
    SCS-CCSD        =     False

MP2 correlation energy -0.4167206646141762
                Solving CC Amplitude Equations
                ------------------------------
  Iter             Energy              RMS        T1Diag      D1Diag    New D1Diag    D2Diag
  ----     ---------------------    ---------   ----------  ----------  ----------   --------
     0        -0.416720664614176    0.000e+00    0.000000    0.000000    0.000000    0.000000
     1        -0.427408062387686    5.697e-02    0.010571    0.000000    0.000000    0.000000
     2        -0.435508837318387    1.692e-02    0.011047    0.000000    0.000000    0.000000
     3        -0.437636239193515    8.593e-03    0.012923    0.000000    0.000000    0.000000
     4        -0.437510342609495    2.538e-03    0.013291    0.000000    0.000000    0.000000
     5        -0.437495802908278    1.323e-03    0.013448    0.000000    0.000000    0.000000
     6        -0.437523047852921    5.159e-04    0.013470    0.000000    0.000000    0.000000
     7        -0.437527694842920    2.659e-04    0.013465    0.000000    0.000000    0.000000
     8        -0.437528298299282    9.999e-05    0.013460    0.000000    0.000000    0.000000
     9        -0.437529680366159    7.453e-05    0.013461    0.000000    0.000000    0.000000
    10        -0.437528108440317    6.426e-05    0.013462    0.000000    0.000000    0.000000
    11        -0.437528257298122    6.135e-05    0.013464    0.000000    0.000000    0.000000
    12        -0.437527969963263    5.963e-05    0.013466    0.000000    0.000000    0.000000
    13        -0.437527965102789    5.849e-05    0.013469    0.000000    0.000000    0.000000
    14        -0.437529139502526    5.663e-05    0.013487    0.000000    0.000000    0.000000
    15        -0.437529516889204    5.014e-05    0.013559    0.000000    0.000000    0.000000
    16        -0.437529290636482    3.354e-05    0.013698    0.000000    0.000000    0.000000
    17        -0.437528943932165    1.619e-05    0.013766    0.000000    0.000000    0.000000
    18        -0.437528812198604    7.600e-06    0.013784    0.000000    0.000000    0.000000
    19        -0.437529071313168    3.360e-06    0.013788    0.000000    0.000000    0.000000
    20        -0.437529183257151    1.505e-06    0.013789    0.000000    0.000000    0.000000
    21        -0.437529191265399    5.938e-07    0.013789    0.000000    0.000000    0.000000
    22        -0.437529192641931    2.824e-07    0.013789    0.000000    0.000000    0.000000
    23        -0.437529191541856    1.468e-07    0.013789    0.000000    0.000000    0.000000
    24        -0.437529190851320    6.101e-08    0.013789    0.000000    0.000000    0.000000
    25        -0.437529191821438    3.332e-08    0.013789    0.000000    0.000000    0.000000
    26        -0.437529192282279    2.587e-08    0.013789    0.000000    0.000000    0.000000
    27        -0.437529192440570    2.424e-08    0.013789    0.000000    0.000000    0.000000
    28        -0.437529192388333    2.350e-08    0.013789    0.000000    0.000000    0.000000
    29        -0.437529192223478    2.283e-08    0.013789    0.000000    0.000000    0.000000
    30        -0.437529191953842    2.176e-08    0.013789    0.000000    0.000000    0.000000
    31        -0.437529192148375    1.849e-08    0.013789    0.000000    0.000000    0.000000
    32        -0.437529192496552    9.774e-09    0.013789    0.000000    0.000000    0.000000
    33        -0.437529192601164    4.278e-09    0.013789    0.000000    0.000000    0.000000
    34        -0.437529192655170    1.748e-09    0.013789    0.000000    0.000000    0.000000
    35        -0.437529192662186    6.830e-10    0.013789    0.000000    0.000000    0.000000
    36        -0.437529192662034    2.923e-10    0.013789    0.000000    0.000000    0.000000

      * MP2 total energy                      = -151.291079427917310
      * CCSD total energy                     = -151.311887955964551
      * CCSD(T) total energy                     = -151.324257600472833
*** Psi4 exiting successfully. Buy a developer a beer!
