                               Psi4 1.3.2 release

  ==> Input File <==

--------------------------------------------------------------------------
memory 4 GB

molecule  {
0 3
O   -1.557607098235   -0.023115100938    0.000000000000
H   -0.595447379547   -0.017334452773    0.000000000000
H   -1.819419894655    0.900575946161    0.000000000000
O    1.709765690284   -0.032537142773    0.000000000000
}
set {
basis aug-cc-pvtz
reference uhf
e_convergence 10
scf_type pk
freeze_core true
}

set ccenergy {
e_convergence 10
r_convergence 10
}

e = energy('ccsd(t)')

print_out('Stephenergy {}'.format(e))

--------------------------------------------------------------------------

    Molecular point group: cs

    Geometry (in Angstrom), charge = 0, multiplicity = 3:

       Center              X                  Y                   Z               Mass
    ------------   -----------------  -----------------  -----------------  -----------------
         O           -1.557607098235    -0.023115100938     0.000000000000    15.994914619570
         H           -0.595447379547    -0.017334452773     0.000000000000     1.007825032230
         H           -1.819419894655     0.900575946161     0.000000000000     1.007825032230
         O            1.709765690284    -0.032537142773     0.000000000000    15.994914619570

  Charge       = 0
  Multiplicity = 3
  Basis Set: AUG-CC-PVTZ
    Blend: AUG-CC-PVTZ

    Orbital Energies [Eh]
    ---------------------

    Alpha Occupied:

       1Ap   -20.733437     2Ap   -20.558928     3Ap    -1.442534
       4Ap    -1.343308     5Ap    -0.733219     1App   -0.733098
       6Ap    -0.712244     7Ap    -0.635544     8Ap    -0.573827
       2App   -0.502259

    Alpha Virtual:

       9Ap     0.034504    10Ap     0.053282    11Ap     0.127961
       3App    0.131773    12Ap     0.148024    13Ap     0.160923
      14Ap     0.183081     4App    0.185165    15Ap     0.209965
      16Ap     0.240166    17Ap     0.270428     5App    0.282069
      18Ap     0.293178     6App    0.322475    19Ap     0.368638
      20Ap     0.390671    21Ap     0.459318    22Ap     0.558496
       7App    0.601019    23Ap     0.608004    24Ap     0.645898
      25Ap     0.666050     8App    0.704316    26Ap     0.713346
       9App    0.734131    10App    0.746498    27Ap     0.763631
      28Ap     0.794412    11App    0.824414    29Ap     0.846969
      30Ap     0.859504    12App    0.879876    31Ap     0.919673
      32Ap     0.939007    13App    0.942563    33Ap     0.953834
      14App    0.979999    34Ap     0.986500    35Ap     1.042698
      36Ap     1.119062    37Ap     1.171792    15App    1.172040
      38Ap     1.194184    16App    1.243973    39Ap     1.268642
      40Ap     1.305478    17App    1.527152    41Ap     1.558888
      18App    1.600834    42Ap     1.665879    43Ap     1.805256
      44Ap     1.815613    19App    1.976729    45Ap     1.976780
      46Ap     2.001432    20App    2.010853    47Ap     2.019097
      21App    2.042275    48Ap     2.054352    22App    2.112498
      49Ap     2.151220    50Ap     2.158814    23App    2.194706
      51Ap     2.282426    24App    2.291173    52Ap     2.326951
      53Ap     2.401978    25App    2.440435    54Ap     2.457203
      26App    2.500684    55Ap     2.514980    56Ap     2.598079
      57Ap     2.666354    27App    2.728041    58Ap     2.742841
      59Ap     2.866315    60Ap     2.942503    28App    2.944137
      61Ap     3.694856    62Ap     3.869005    29App    4.028605
      30App    4.056703    63Ap     4.074170    31App    4.165369
      64Ap     4.208293    65Ap     4.265947    32App    4.312376
      66Ap     4.377480    33App    4.392822    34App    4.435515
      67Ap     4.441915    68Ap     4.565340    69Ap     4.775920
      70Ap     4.946522    35App    5.161078    71Ap     5.169035
      72Ap     5.317828    73Ap     5.375950    36App    5.524097
      74Ap     5.704442    75Ap     6.185030    37App    6.311639
      76Ap     6.311671    38App    6.370135    77Ap     6.372478
      39App    6.501990    78Ap     6.518356    79Ap     6.547390
      80Ap     6.617703    40App    6.721536    81Ap     6.812666
      41App    6.818461    82Ap     6.900871    42App    6.931020
      83Ap     6.960890    84Ap     7.046617    43App    7.147839
      44App    7.273860    45App    7.324012    85Ap     7.331333
      86Ap     7.360667    46App    7.434358    87Ap     7.659967
      88Ap     7.947053    89Ap     7.963577    90Ap     8.805901
      91Ap     9.259742    92Ap    16.510223

    Beta Occupied:

       1Ap   -20.654667     2Ap   -20.559042     3Ap    -1.343784
       4Ap    -1.100041     5Ap    -0.711690     6Ap    -0.578947
       7Ap    -0.541563     1App   -0.502310

    Beta Virtual:

       8Ap     0.034256     9Ap     0.046620     2App    0.048550
      10Ap     0.057938    11Ap     0.144072    12Ap     0.151224
       3App    0.160101    13Ap     0.179582    14Ap     0.209478
      15Ap     0.217886     4App    0.226355    16Ap     0.249525
      17Ap     0.272466     5App    0.282362    18Ap     0.295583
       6App    0.325316    19Ap     0.372201    20Ap     0.399985
      21Ap     0.459947    22Ap     0.561086     7App    0.633476
      23Ap     0.638607    24Ap     0.648632    25Ap     0.669168
      26Ap     0.714061     8App    0.718058     9App    0.735268
      10App    0.747807    27Ap     0.780615    28Ap     0.806160
      29Ap     0.852466    11App    0.864156    30Ap     0.915732
      12App    0.933056    31Ap     0.939243    13App    0.950069
      32Ap     0.950152    33Ap     0.974860    34Ap     1.014071
      14App    1.023955    35Ap     1.045627    36Ap     1.135401
      15App    1.175326    37Ap     1.178359    38Ap     1.230344
      16App    1.254551    39Ap     1.270328    40Ap     1.316172
      17App    1.527987    41Ap     1.565723    18App    1.602201
      42Ap     1.694951    43Ap     1.809423    44Ap     1.819881
      45Ap     2.010994    19App    2.014862    46Ap     2.015105
      20App    2.047054    47Ap     2.059753    21App    2.156788
      22App    2.179122    48Ap     2.179803    49Ap     2.196764
      50Ap     2.209157    23App    2.236296    24App    2.292963
      51Ap     2.307061    52Ap     2.336388    53Ap     2.412206
      25App    2.442769    54Ap     2.458217    26App    2.509399
      55Ap     2.522590    56Ap     2.604238    57Ap     2.676033
      27App    2.728973    58Ap     2.747881    59Ap     2.870834
      28App    2.944841    60Ap     2.944991    61Ap     3.695307
      62Ap     3.871045    29App    4.028918    30App    4.141966
      63Ap     4.191174    64Ap     4.242463    31App    4.250278
      65Ap     4.284101    32App    4.312464    33App    4.393001
      66Ap     4.395721    34App    4.437078    67Ap     4.469959
      68Ap     4.566265    69Ap     4.777562    70Ap     4.948206
      35App    5.161058    71Ap     5.169459    72Ap     5.318027
      73Ap     5.376840    36App    5.524136    74Ap     5.704946
      75Ap     6.185582    37App    6.420604    76Ap     6.420625
      38App    6.445829    77Ap     6.448393    78Ap     6.534288
      39App    6.557331    79Ap     6.587247    80Ap     6.664593
      40App    6.725130    81Ap     6.900960    41App    7.005051
      82Ap     7.005646    42App    7.039488    83Ap     7.067948
      84Ap     7.127686    43App    7.150032    44App    7.274232
      45App    7.324837    85Ap     7.331330    86Ap     7.361157
      46App    7.434804    87Ap     7.661747    88Ap     7.947302
      89Ap     7.963839    90Ap     8.808206    91Ap     9.334508
      92Ap    16.510699

    Final Occupation by Irrep:
             Ap   App
    DOCC [     7,    1 ]
    SOCC [     1,    1 ]

  @UHF Final Energy:  -150.87470549371579

   => Energetics <=

    Nuclear Repulsion Energy =             22.5165439158840499
    One-Electron Energy =                -252.8220559177091218
    Two-Electron Energy =                  79.4308065081092849
    Total Energy =                       -150.8747054937157941

  UHF NO Occupations:
  HONO-2 :    7 Ap 1.9970328
  HONO-1 :    2App 1.0000000
  HONO-0 :    8 Ap 1.0000000
  LUNO+0 :    9 Ap 0.0029672
  LUNO+1 :   10 Ap 0.0017228
  LUNO+2 :   11 Ap 0.0000024
  LUNO+3 :   12 Ap 0.0000014

Computation Completed

Properties will be evaluated at   0.000000,   0.000000,   0.000000 [a0]

Properties computed using the SCF density matrix

  Nuclear Dipole Moment: [e a0]
     X:    -2.2631      Y:     0.8277      Z:     0.0000

  Electronic Dipole Moment: [e a0]
     X:     2.8149      Y:    -0.2171      Z:     0.0000

  Dipole Moment: [e a0]
     X:     0.5517      Y:     0.6106      Z:     0.0000     Total:     0.8230

  Dipole Moment: [D]
     X:     1.4024      Y:     1.5520      Z:     0.0000     Total:     2.0917

*** tstop() called on c2-19.compute.lan at Tue Mar  9 14:40:36 2021
Module time:
	user time   =      52.20 seconds =       0.87 minutes
	system time =       2.15 seconds =       0.04 minutes
	total time  =          5 seconds =       0.08 minutes
Total time:
	user time   =      52.20 seconds =       0.87 minutes
	system time =       2.15 seconds =       0.04 minutes
	total time  =          5 seconds =       0.08 minutes
 MINTS: Wrapper to libmints.
   by Justin Turney

   Calculation information:
      Number of threads:                12
      Number of atoms:                   4
      Number of AO shells:              46
      Number of SO shells:              46
      Number of primitives:             82
      Number of atomic orbitals:       160
      Number of basis functions:       138

      Number of irreps:                  2
      Integral cutoff                 0.00e+00
      Number of functions per irrep: [  92   46 ]

 OEINTS: Overlap, kinetic, potential, dipole, and quadrupole integrals
         stored in file 35.

      Computing two-electron integrals...done
      Computed 22935358 non-zero two-electron integrals.
        Stored in file 33.

*** tstart() called on c2-19.compute.lan
*** at Tue Mar  9 14:40:40 2021

	Wfn Parameters:
	--------------------
	Wavefunction         = CCSD_T
	Number of irreps     = 2
	Number of MOs        = 138
	Number of active MOs = 136
	AO-Basis             = NONE
	Semicanonical        = false
	Reference            = UHF
	Print Level          = 1

	IRREP	# MOs	# FZDC	# DOCC	# SOCC	# VIRT	# FZVR
	-----	-----	------	------	------	------	------
	 Ap	   92	    2	    5	    1	    84	    0
	 App	   46	    0	    1	    1	    44	    0
	Transforming integrals...
	IWL integrals will be deleted.
	(OO|OO)...
	Presorting SO-basis two-electron integrals.
	Sorting File: SO Ints (nn|nn) nbuckets = 1
	Transforming the one-electron integrals and constructing Fock matrices
	Starting AA/AB first half-transformation.
	Sorting AA/AB half-transformed integrals.
	Starting BB first half-transformation.
	Sorting BB half-transformed integrals.
	First half integral transformation complete.
	Starting AA second half-transformation.
	Starting AB second half-transformation.
	Starting BB second half-transformation.
	Two-electron integral transformation complete.
	(OO|OV)...
	Starting AA second half-transformation.
	Starting AB second half-transformation.
	Starting BB second half-transformation.
	Two-electron integral transformation complete.
	(OO|VV)...
	Starting AA second half-transformation.
	Starting AB second half-transformation.
	Starting BB second half-transformation.
	Two-electron integral transformation complete.
	(OV|OO)...
	Starting AA/AB first half-transformation.
	Sorting AA/AB half-transformed integrals.
	Starting BB first half-transformation.
	Sorting BB half-transformed integrals.
	First half integral transformation complete.
	Starting AA second half-transformation.
	Starting AB second half-transformation.
	Starting BB second half-transformation.
	Two-electron integral transformation complete.
	(OV|OV)...
	Starting AA second half-transformation.
	Starting AB second half-transformation.
	Starting BB second half-transformation.
	Two-electron integral transformation complete.
	(OV|VV)...
	Starting AA second half-transformation.
	Starting AB second half-transformation.
	Starting BB second half-transformation.
	Two-electron integral transformation complete.
	(VV|OO)...
	Starting AA/AB first half-transformation.
	Sorting AA/AB half-transformed integrals.
	Starting BB first half-transformation.
	Sorting BB half-transformed integrals.
	First half integral transformation complete.
	Starting AA second half-transformation.
	Starting AB second half-transformation.
	Starting BB second half-transformation.
	Two-electron integral transformation complete.
	(VV|OV)...
	Starting AA second half-transformation.
	Starting AB second half-transformation.
	Starting BB second half-transformation.
	Two-electron integral transformation complete.
	(VV|VV)...
	Starting AA second half-transformation.
	Starting AB second half-transformation.
	Starting BB second half-transformation.
	Two-electron integral transformation complete.
	Frozen core energy     =   -125.69711342511486

	Size of irrep 0 of <AB|CD> integrals:     19.643 (MW) /    157.141 (MB)
	Size of irrep 1 of <AB|CD> integrals:     13.660 (MW) /    109.283 (MB)
	Total:                                    33.303 (MW) /    266.424 (MB)

	Size of irrep 0 of <ab|cd> integrals:     20.794 (MW) /    166.349 (MB)
	Size of irrep 1 of <ab|cd> integrals:     14.631 (MW) /    117.045 (MB)
	Total:                                    35.424 (MW) /    283.394 (MB)

	Size of irrep 0 of <Ab|Cd> integrals:     83.174 (MW) /    665.395 (MB)
	Size of irrep 1 of <Ab|Cd> integrals:     56.550 (MW) /    452.403 (MB)
	Total:                                   139.725 (MW) /   1117.798 (MB)

	Size of irrep 0 of <IA|BC> integrals:      5.323 (MW) /     42.586 (MB)
	Size of irrep 1 of <IA|BC> integrals:      3.193 (MW) /     25.547 (MB)
	Total:                                     8.517 (MW) /     68.133 (MB)

	Size of irrep 0 of <ia|bc> integrals:      4.348 (MW) /     34.780 (MB)
	Size of irrep 1 of <ia|bc> integrals:      2.372 (MW) /     18.972 (MB)
	Total:                                     6.719 (MW) /     53.752 (MB)

	Size of irrep 0 of <Ia|Bc> integrals:      5.472 (MW) /     43.776 (MB)
	Size of irrep 1 of <Ia|Bc> integrals:      3.309 (MW) /     26.470 (MB)
	Total:                                     8.781 (MW) /     70.246 (MB)

	Size of irrep 0 of <iA|bC> integrals:      4.232 (MW) /     33.853 (MB)
	Size of irrep 1 of <iA|bC> integrals:      2.286 (MW) /     18.289 (MB)
	Total:                                     6.518 (MW) /     52.142 (MB)

	Size of irrep 0 of tIjAb amplitudes:       0.292 (MW) /      2.335 (MB)
	Size of irrep 1 of tIjAb amplitudes:       0.120 (MW) /      0.963 (MB)
	Total:                                     0.412 (MW) /      3.297 (MB)

	Nuclear Rep. energy          =     22.51654391588405
	SCF energy                   =   -150.87470549371579
	One-electron energy          =    -83.93390303592571
	Two-electron (AA) energy     =     10.05793257798326
	Two-electron (BB) energy     =      5.35256418434106
	Two-electron (AB) energy     =     20.82927028911498
	Two-electron energy          =     36.23976705143929
	Reference energy             =   -150.87470549371724

*** tstop() called on c2-19.compute.lan at Tue Mar  9 14:41:22 2021
Module time:
	user time   =     232.86 seconds =       3.88 minutes
	system time =      19.64 seconds =       0.33 minutes
	total time  =         42 seconds =       0.70 minutes
Total time:
	user time   =     292.38 seconds =       4.87 minutes
	system time =      22.71 seconds =       0.38 minutes
	total time  =         51 seconds =       0.85 minutes
            **************************
            *                        *
            *        CCENERGY        *
            *                        *
            **************************

    Nuclear Rep. energy (wfn)     =   22.516543915884050
    SCF energy          (wfn)     = -150.874705493715794
    Reference energy    (file100) = -150.874705493717244

    Input parameters:
    -----------------
    Wave function   =     CCSD_T
    Reference wfn   =     UHF
    Brueckner       =     No
    Memory (Mbytes) =     4000.0
    Maxiter         =     50
    R_Convergence   =     1.0e-10
    E_Convergence   =     1.0e-10
    Restart         =     Yes
    DIIS            =     Yes
    AO Basis        =     NONE
    ABCD            =     NEW
    Cache Level     =     2
    Cache Type      =     LRU
    Print Level     =     1
    Num. of threads =     12
    # Amps to Print =     10
    Print MP2 Amps? =     No
    Analyze T2 Amps =     No
    Print Pair Ener =     No
    Local CC        =     No
    SCS-MP2         =     False
    SCSN-MP2        =     False
    SCS-CCSD        =     False

MP2 correlation energy -0.4162323301676865
                Solving CC Amplitude Equations
                ------------------------------
  Iter             Energy              RMS        T1Diag      D1Diag    New D1Diag    D2Diag
  ----     ---------------------    ---------   ----------  ----------  ----------   --------
     0        -0.416232330167687    0.000e+00    0.000000    0.000000    0.000000    0.000000
     1        -0.427026808351521    5.667e-02    0.010487    0.000000    0.000000    0.000000
     2        -0.435098456440044    1.683e-02    0.010973    0.000000    0.000000    0.000000
     3        -0.437208933268021    8.514e-03    0.012825    0.000000    0.000000    0.000000
     4        -0.437083727569174    2.524e-03    0.013185    0.000000    0.000000    0.000000
     5        -0.437070085966719    1.300e-03    0.013336    0.000000    0.000000    0.000000
     6        -0.437096800742512    5.082e-04    0.013354    0.000000    0.000000    0.000000
     7        -0.437101377291848    2.495e-04    0.013347    0.000000    0.000000    0.000000
     8        -0.437102008820485    8.636e-05    0.013341    0.000000    0.000000    0.000000
     9        -0.437103342780678    5.943e-05    0.013342    0.000000    0.000000    0.000000
    10        -0.437101967700309    4.985e-05    0.013342    0.000000    0.000000    0.000000
    11        -0.437102062971869    4.758e-05    0.013343    0.000000    0.000000    0.000000
    12        -0.437101883423751    4.635e-05    0.013344    0.000000    0.000000    0.000000
    13        -0.437101839025404    4.553e-05    0.013346    0.000000    0.000000    0.000000
    14        -0.437102563251836    4.439e-05    0.013354    0.000000    0.000000    0.000000
    15        -0.437102798127893    4.098e-05    0.013383    0.000000    0.000000    0.000000
    16        -0.437102626657592    3.136e-05    0.013482    0.000000    0.000000    0.000000
    17        -0.437102413070383    1.679e-05    0.013550    0.000000    0.000000    0.000000
    18        -0.437102299540491    7.897e-06    0.013572    0.000000    0.000000    0.000000
    19        -0.437102537547567    3.428e-06    0.013578    0.000000    0.000000    0.000000
    20        -0.437102649820208    1.524e-06    0.013579    0.000000    0.000000    0.000000
    21        -0.437102655084724    5.817e-07    0.013579    0.000000    0.000000    0.000000
    22        -0.437102655108418    2.384e-07    0.013580    0.000000    0.000000    0.000000
    23        -0.437102654853448    1.133e-07    0.013580    0.000000    0.000000    0.000000
    24        -0.437102654523949    4.248e-08    0.013580    0.000000    0.000000    0.000000
    25        -0.437102655349509    2.120e-08    0.013580    0.000000    0.000000    0.000000
    26        -0.437102655710713    1.178e-08    0.013580    0.000000    0.000000    0.000000
    27        -0.437102655793121    9.589e-09    0.013580    0.000000    0.000000    0.000000
    28        -0.437102655788327    8.993e-09    0.013580    0.000000    0.000000    0.000000
    29        -0.437102655733753    8.539e-09    0.013580    0.000000    0.000000    0.000000
    30        -0.437102655623113    7.965e-09    0.013580    0.000000    0.000000    0.000000
    31        -0.437102655662897    6.533e-09    0.013580    0.000000    0.000000    0.000000
    32        -0.437102655803659    3.938e-09    0.013580    0.000000    0.000000    0.000000
    33        -0.437102655842406    1.691e-09    0.013580    0.000000    0.000000    0.000000
    34        -0.437102655860175    7.397e-10    0.013580    0.000000    0.000000    0.000000
    35        -0.437102655861846    3.290e-10    0.013580    0.000000    0.000000    0.000000
    36        -0.437102655859934    1.294e-10    0.013580    0.000000    0.000000    0.000000

      * MP2 total energy                      = -151.290937823884917
      * CCSD total energy                     = -151.311808149575910
      * CCSD(T) total energy                     = -151.324114452242355
*** Psi4 exiting successfully. Buy a developer a beer!
