                               Psi4 1.3.2 release

  ==> Input File <==

--------------------------------------------------------------------------
memory 4 GB

molecule  {
0 3
O   -1.522636442466   -0.028942593331    0.000000000000
H   -0.559924226166   -0.008252673984    0.000000000000
H   -1.778632712482    0.896326759830    0.000000000000
O    1.669986789630   -0.027014147639    0.000000000000
}
set {
basis aug-cc-pvtz
reference uhf
e_convergence 10
scf_type pk
freeze_core true
}

set ccenergy {
e_convergence 10
r_convergence 10
}

e = energy('ccsd(t)')

print_out('Stephenergy {}'.format(e))

--------------------------------------------------------------------------

    Molecular point group: cs

    Geometry (in Angstrom), charge = 0, multiplicity = 3:

       Center              X                  Y                   Z               Mass
    ------------   -----------------  -----------------  -----------------  -----------------
         O           -1.522636442466    -0.028942593331     0.000000000000    15.994914619570
         H           -0.559924226166    -0.008252673984     0.000000000000     1.007825032230
         H           -1.778632712482     0.896326759830     0.000000000000     1.007825032230
         O            1.669986789630    -0.027014147639     0.000000000000    15.994914619570

  Charge       = 0
  Multiplicity = 3
  Basis Set: AUG-CC-PVTZ
    Blend: AUG-CC-PVTZ

    Orbital Energies [Eh]
    ---------------------

    Alpha Occupied:

       1Ap   -20.734882     2Ap   -20.558449     3Ap    -1.444191
       4Ap    -1.343163     5Ap    -0.734735     1App   -0.734587
       6Ap    -0.709792     7Ap    -0.636879     8Ap    -0.574965
       2App   -0.501728

    Alpha Virtual:

       9Ap     0.034588    10Ap     0.053274    11Ap     0.127533
       3App    0.131542    12Ap     0.148053    13Ap     0.161232
      14Ap     0.183458     4App    0.186206    15Ap     0.211501
      16Ap     0.241554    17Ap     0.271986     5App    0.282515
      18Ap     0.293352     6App    0.323275    19Ap     0.372040
      20Ap     0.392805    21Ap     0.460329    22Ap     0.558954
       7App    0.600115    23Ap     0.608671    24Ap     0.643810
      25Ap     0.668832    26Ap     0.712143     8App    0.712501
       9App    0.734683    10App    0.747275    27Ap     0.765747
      28Ap     0.797345    11App    0.824743    29Ap     0.851831
      30Ap     0.865566    12App    0.883259    31Ap     0.923012
      13App    0.942000    32Ap     0.944200    33Ap     0.956639
      14App    0.983775    34Ap     0.986137    35Ap     1.043720
      36Ap     1.127981    37Ap     1.169020    15App    1.178005
      38Ap     1.193701    16App    1.259330    39Ap     1.272408
      40Ap     1.323408    17App    1.528720    41Ap     1.555148
      18App    1.600871    42Ap     1.688911    43Ap     1.819454
      44Ap     1.826145    19App    1.975643    45Ap     1.975682
      46Ap     1.997062    20App    2.011182    47Ap     2.017952
      21App    2.048197    48Ap     2.060605    22App    2.122170
      49Ap     2.164289    50Ap     2.165215    23App    2.210400
      24App    2.294834    51Ap     2.300595    52Ap     2.329044
      53Ap     2.414317    25App    2.449021    54Ap     2.461982
      26App    2.523161    55Ap     2.535365    56Ap     2.630279
      57Ap     2.668819    27App    2.728718    58Ap     2.750299
      59Ap     2.866280    60Ap     2.942202    28App    2.946649
      61Ap     3.700521    62Ap     3.892786    29App    4.036402
      30App    4.058415    63Ap     4.076330    31App    4.172567
      64Ap     4.200041    65Ap     4.275277    32App    4.298674
      66Ap     4.376339    33App    4.393680    67Ap     4.436428
      34App    4.440847    68Ap     4.578189    69Ap     4.784899
      70Ap     4.963719    35App    5.157127    71Ap     5.183639
      72Ap     5.307536    73Ap     5.376657    36App    5.529532
      74Ap     5.690773    75Ap     6.199177    37App    6.310291
      76Ap     6.310334    38App    6.372692    77Ap     6.375404
      39App    6.519494    78Ap     6.526181    79Ap     6.555586
      80Ap     6.634103    40App    6.724756    81Ap     6.812422
      41App    6.818468    82Ap     6.915715    42App    6.933665
      83Ap     6.967172    84Ap     7.049464    43App    7.147812
      44App    7.275977    85Ap     7.324362    45App    7.329135
      86Ap     7.359952    46App    7.441254    87Ap     7.660023
      88Ap     7.947399    89Ap     7.968633    90Ap     8.815336
      91Ap     9.387180    92Ap    16.549300

    Beta Occupied:

       1Ap   -20.656103     2Ap   -20.558588     3Ap    -1.343759
       4Ap    -1.101737     5Ap    -0.708827     6Ap    -0.581404
       7Ap    -0.542172     1App   -0.501783

    Beta Virtual:

       8Ap     0.034232     9Ap     0.046135     2App    0.047683
      10Ap     0.057598    11Ap     0.144183    12Ap     0.151006
       3App    0.160413    13Ap     0.179894    14Ap     0.210174
      15Ap     0.217899     4App    0.225930    16Ap     0.251192
      17Ap     0.273970     5App    0.282850    18Ap     0.295595
       6App    0.326954    19Ap     0.375838    20Ap     0.403461
      21Ap     0.461051    22Ap     0.561887     7App    0.632433
      23Ap     0.638985    24Ap     0.646864    25Ap     0.671865
      26Ap     0.712823     8App    0.726300     9App    0.735820
      10App    0.748705    27Ap     0.784485    28Ap     0.809696
      29Ap     0.857405    11App    0.867596    30Ap     0.918392
      12App    0.935718    31Ap     0.943780    13App    0.949611
      32Ap     0.954127    33Ap     0.973857    34Ap     1.015889
      14App    1.024994    35Ap     1.047644    36Ap     1.153804
      37Ap     1.176984    15App    1.181303    38Ap     1.219417
      16App    1.270439    39Ap     1.274501    40Ap     1.334232
      17App    1.529566    41Ap     1.560872    18App    1.602466
      42Ap     1.716075    43Ap     1.824793    44Ap     1.833164
      45Ap     2.004800    19App    2.013746    46Ap     2.013964
      20App    2.052812    47Ap     2.065673    21App    2.169876
      22App    2.179574    48Ap     2.179648    49Ap     2.203844
      50Ap     2.227099    23App    2.248163    24App    2.296731
      51Ap     2.316601    52Ap     2.343296    53Ap     2.421734
      25App    2.451468    54Ap     2.462793    26App    2.531781
      55Ap     2.542672    56Ap     2.636400    57Ap     2.679942
      27App    2.729863    58Ap     2.757044    59Ap     2.870917
      60Ap     2.944966    28App    2.947335    61Ap     3.700964
      62Ap     3.895605    29App    4.036625    30App    4.146271
      63Ap     4.180024    64Ap     4.244149    31App    4.254639
      65Ap     4.296265    32App    4.299005    66Ap     4.390777
      33App    4.393870    34App    4.442380    67Ap     4.467763
      68Ap     4.579137    69Ap     4.786304    70Ap     4.965966
      35App    5.157113    71Ap     5.184155    72Ap     5.307762
      73Ap     5.377691    36App    5.529614    74Ap     5.691412
      75Ap     6.199642    37App    6.419249    76Ap     6.419275
      38App    6.448102    77Ap     6.450876    78Ap     6.532422
      39App    6.574454    79Ap     6.605448    80Ap     6.680249
      40App    6.729052    81Ap     6.918272    41App    7.004540
      82Ap     7.005584    42App    7.041919    83Ap     7.071387
      84Ap     7.129777    43App    7.150127    44App    7.276450
      85Ap     7.324508    45App    7.329953    86Ap     7.360421
      46App    7.441694    87Ap     7.661336    88Ap     7.947803
      89Ap     7.968761    90Ap     8.817833    91Ap     9.461702
      92Ap    16.549859

    Final Occupation by Irrep:
             Ap   App
    DOCC [     7,    1 ]
    SOCC [     1,    1 ]

  @UHF Final Energy:  -150.87446110451498

   => Energetics <=

    Nuclear Repulsion Energy =             22.8469069222141492
    One-Electron Energy =                -253.4749911809147420
    Two-Electron Energy =                  79.7536231541856040
    Total Energy =                       -150.8744611045149782

  UHF NO Occupations:
  HONO-2 :    7 Ap 1.9970295
  HONO-1 :    8 Ap 1.0000000
  HONO-0 :    2App 1.0000000
  LUNO+0 :    9 Ap 0.0029705
  LUNO+1 :   10 Ap 0.0017131
  LUNO+2 :   11 Ap 0.0000024
  LUNO+3 :   12 Ap 0.0000019

Computation Completed

Properties will be evaluated at   0.000000,   0.000000,   0.000000 [a0]

Properties computed using the SCF density matrix

  Nuclear Dipole Moment: [e a0]
     X:    -2.1916      Y:     0.8323      Z:     0.0000

  Electronic Dipole Moment: [e a0]
     X:     2.7553      Y:    -0.2138      Z:     0.0000

  Dipole Moment: [e a0]
     X:     0.5636      Y:     0.6185      Z:     0.0000     Total:     0.8368

  Dipole Moment: [D]
     X:     1.4326      Y:     1.5720      Z:     0.0000     Total:     2.1269

*** tstop() called on c5-20.compute.lan at Tue Mar  9 14:57:34 2021
Module time:
	user time   =      58.26 seconds =       0.97 minutes
	system time =       0.87 seconds =       0.01 minutes
	total time  =          5 seconds =       0.08 minutes
Total time:
	user time   =      58.26 seconds =       0.97 minutes
	system time =       0.87 seconds =       0.01 minutes
	total time  =          5 seconds =       0.08 minutes
 MINTS: Wrapper to libmints.
   by Justin Turney

   Calculation information:
      Number of threads:                12
      Number of atoms:                   4
      Number of AO shells:              46
      Number of SO shells:              46
      Number of primitives:             82
      Number of atomic orbitals:       160
      Number of basis functions:       138

      Number of irreps:                  2
      Integral cutoff                 0.00e+00
      Number of functions per irrep: [  92   46 ]

 OEINTS: Overlap, kinetic, potential, dipole, and quadrupole integrals
         stored in file 35.

      Computing two-electron integrals...done
      Computed 22941098 non-zero two-electron integrals.
        Stored in file 33.

*** tstart() called on c5-20.compute.lan
*** at Tue Mar  9 14:57:38 2021

	Wfn Parameters:
	--------------------
	Wavefunction         = CCSD_T
	Number of irreps     = 2
	Number of MOs        = 138
	Number of active MOs = 136
	AO-Basis             = NONE
	Semicanonical        = false
	Reference            = UHF
	Print Level          = 1

	IRREP	# MOs	# FZDC	# DOCC	# SOCC	# VIRT	# FZVR
	-----	-----	------	------	------	------	------
	 Ap	   92	    2	    5	    1	    84	    0
	 App	   46	    0	    1	    1	    44	    0
	Transforming integrals...
	IWL integrals will be deleted.
	(OO|OO)...
	Presorting SO-basis two-electron integrals.
	Sorting File: SO Ints (nn|nn) nbuckets = 1
	Transforming the one-electron integrals and constructing Fock matrices
	Starting AA/AB first half-transformation.
	Sorting AA/AB half-transformed integrals.
	Starting BB first half-transformation.
	Sorting BB half-transformed integrals.
	First half integral transformation complete.
	Starting AA second half-transformation.
	Starting AB second half-transformation.
	Starting BB second half-transformation.
	Two-electron integral transformation complete.
	(OO|OV)...
	Starting AA second half-transformation.
	Starting AB second half-transformation.
	Starting BB second half-transformation.
	Two-electron integral transformation complete.
	(OO|VV)...
	Starting AA second half-transformation.
	Starting AB second half-transformation.
	Starting BB second half-transformation.
	Two-electron integral transformation complete.
	(OV|OO)...
	Starting AA/AB first half-transformation.
	Sorting AA/AB half-transformed integrals.
	Starting BB first half-transformation.
	Sorting BB half-transformed integrals.
	First half integral transformation complete.
	Starting AA second half-transformation.
	Starting AB second half-transformation.
	Starting BB second half-transformation.
	Two-electron integral transformation complete.
	(OV|OV)...
	Starting AA second half-transformation.
	Starting AB second half-transformation.
	Starting BB second half-transformation.
	Two-electron integral transformation complete.
	(OV|VV)...
	Starting AA second half-transformation.
	Starting AB second half-transformation.
	Starting BB second half-transformation.
	Two-electron integral transformation complete.
	(VV|OO)...
	Starting AA/AB first half-transformation.
	Sorting AA/AB half-transformed integrals.
	Starting BB first half-transformation.
	Sorting BB half-transformed integrals.
	First half integral transformation complete.
	Starting AA second half-transformation.
	Starting AB second half-transformation.
	Starting BB second half-transformation.
	Two-electron integral transformation complete.
	(VV|OV)...
	Starting AA second half-transformation.
	Starting AB second half-transformation.
	Starting BB second half-transformation.
	Two-electron integral transformation complete.
	(VV|VV)...
	Starting AA second half-transformation.
	Starting AB second half-transformation.
	Starting BB second half-transformation.
	Two-electron integral transformation complete.
	Frozen core energy     =   -125.82453011664165

	Size of irrep 0 of <AB|CD> integrals:     19.643 (MW) /    157.141 (MB)
	Size of irrep 1 of <AB|CD> integrals:     13.660 (MW) /    109.283 (MB)
	Total:                                    33.303 (MW) /    266.424 (MB)

	Size of irrep 0 of <ab|cd> integrals:     20.794 (MW) /    166.349 (MB)
	Size of irrep 1 of <ab|cd> integrals:     14.631 (MW) /    117.045 (MB)
	Total:                                    35.424 (MW) /    283.394 (MB)

	Size of irrep 0 of <Ab|Cd> integrals:     83.174 (MW) /    665.395 (MB)
	Size of irrep 1 of <Ab|Cd> integrals:     56.550 (MW) /    452.403 (MB)
	Total:                                   139.725 (MW) /   1117.798 (MB)

	Size of irrep 0 of <IA|BC> integrals:      5.323 (MW) /     42.586 (MB)
	Size of irrep 1 of <IA|BC> integrals:      3.193 (MW) /     25.547 (MB)
	Total:                                     8.517 (MW) /     68.133 (MB)

	Size of irrep 0 of <ia|bc> integrals:      4.348 (MW) /     34.780 (MB)
	Size of irrep 1 of <ia|bc> integrals:      2.372 (MW) /     18.972 (MB)
	Total:                                     6.719 (MW) /     53.752 (MB)

	Size of irrep 0 of <Ia|Bc> integrals:      5.472 (MW) /     43.776 (MB)
	Size of irrep 1 of <Ia|Bc> integrals:      3.309 (MW) /     26.470 (MB)
	Total:                                     8.781 (MW) /     70.246 (MB)

	Size of irrep 0 of <iA|bC> integrals:      4.232 (MW) /     33.853 (MB)
	Size of irrep 1 of <iA|bC> integrals:      2.286 (MW) /     18.289 (MB)
	Total:                                     6.518 (MW) /     52.142 (MB)

	Size of irrep 0 of tIjAb amplitudes:       0.292 (MW) /      2.335 (MB)
	Size of irrep 1 of tIjAb amplitudes:       0.120 (MW) /      0.963 (MB)
	Total:                                     0.412 (MW) /      3.297 (MB)

	Nuclear Rep. energy          =     22.84690692221415
	SCF energy                   =   -150.87446110451498
	One-electron energy          =    -84.33395260699936
	Two-electron (AA) energy     =     10.12250960025345
	Two-electron (BB) energy     =      5.38642246669294
	Two-electron (AB) energy     =     20.92818262996330
	Two-electron energy          =     36.43711469690969
	Reference energy             =   -150.87446110451720

*** tstop() called on c5-20.compute.lan at Tue Mar  9 14:58:11 2021
Module time:
	user time   =     105.64 seconds =       1.76 minutes
	system time =      18.07 seconds =       0.30 minutes
	total time  =         33 seconds =       0.55 minutes
Total time:
	user time   =     170.24 seconds =       2.84 minutes
	system time =      19.54 seconds =       0.33 minutes
	total time  =         42 seconds =       0.70 minutes
            **************************
            *                        *
            *        CCENERGY        *
            *                        *
            **************************

    Nuclear Rep. energy (wfn)     =   22.846906922214149
    SCF energy          (wfn)     = -150.874461104514978
    Reference energy    (file100) = -150.874461104517195

    Input parameters:
    -----------------
    Wave function   =     CCSD_T
    Reference wfn   =     UHF
    Brueckner       =     No
    Memory (Mbytes) =     4000.0
    Maxiter         =     50
    R_Convergence   =     1.0e-10
    E_Convergence   =     1.0e-10
    Restart         =     Yes
    DIIS            =     Yes
    AO Basis        =     NONE
    ABCD            =     NEW
    Cache Level     =     2
    Cache Type      =     LRU
    Print Level     =     1
    Num. of threads =     12
    # Amps to Print =     10
    Print MP2 Amps? =     No
    Analyze T2 Amps =     No
    Print Pair Ener =     No
    Local CC        =     No
    SCS-MP2         =     False
    SCSN-MP2        =     False
    SCS-CCSD        =     False

MP2 correlation energy -0.4165381412403291
                Solving CC Amplitude Equations
                ------------------------------
  Iter             Energy              RMS        T1Diag      D1Diag    New D1Diag    D2Diag
  ----     ---------------------    ---------   ----------  ----------  ----------   --------
     0        -0.416538141240329    0.000e+00    0.000000    0.000000    0.000000    0.000000
     1        -0.427282186374326    5.680e-02    0.010531    0.000000    0.000000    0.000000
     2        -0.435369691047260    1.686e-02    0.011020    0.000000    0.000000    0.000000
     3        -0.437482785794060    8.559e-03    0.012888    0.000000    0.000000    0.000000
     4        -0.437357650986948    2.532e-03    0.013255    0.000000    0.000000    0.000000
     5        -0.437342689777241    1.324e-03    0.013411    0.000000    0.000000    0.000000
     6        -0.437369950043681    5.154e-04    0.013434    0.000000    0.000000    0.000000
     7        -0.437374749756481    2.663e-04    0.013429    0.000000    0.000000    0.000000
     8        -0.437375319256483    9.577e-05    0.013424    0.000000    0.000000    0.000000
     9        -0.437376717279045    6.852e-05    0.013425    0.000000    0.000000    0.000000
    10        -0.437375175368643    5.727e-05    0.013426    0.000000    0.000000    0.000000
    11        -0.437375301703826    5.409e-05    0.013427    0.000000    0.000000    0.000000
    12        -0.437375104513515    5.239e-05    0.013429    0.000000    0.000000    0.000000
    13        -0.437375091349368    5.145e-05    0.013431    0.000000    0.000000    0.000000
    14        -0.437375990183145    5.019e-05    0.013441    0.000000    0.000000    0.000000
    15        -0.437376317338642    4.591e-05    0.013485    0.000000    0.000000    0.000000
    16        -0.437376091724931    3.331e-05    0.013601    0.000000    0.000000    0.000000
    17        -0.437375799854436    1.698e-05    0.013673    0.000000    0.000000    0.000000
    18        -0.437375655693800    7.984e-06    0.013693    0.000000    0.000000    0.000000
    19        -0.437375902011587    3.511e-06    0.013699    0.000000    0.000000    0.000000
    20        -0.437376019807369    1.549e-06    0.013700    0.000000    0.000000    0.000000
    21        -0.437376026583759    6.157e-07    0.013700    0.000000    0.000000    0.000000
    22        -0.437376027568827    2.790e-07    0.013700    0.000000    0.000000    0.000000
    23        -0.437376026892039    1.402e-07    0.013700    0.000000    0.000000    0.000000
    24        -0.437376026137532    5.385e-08    0.013700    0.000000    0.000000    0.000000
    25        -0.437376027030626    2.671e-08    0.013700    0.000000    0.000000    0.000000
    26        -0.437376027460680    1.861e-08    0.013700    0.000000    0.000000    0.000000
    27        -0.437376027588807    1.692e-08    0.013700    0.000000    0.000000    0.000000
    28        -0.437376027566713    1.631e-08    0.013700    0.000000    0.000000    0.000000
    29        -0.437376027475673    1.590e-08    0.013700    0.000000    0.000000    0.000000
    30        -0.437376027293602    1.540e-08    0.013700    0.000000    0.000000    0.000000
    31        -0.437376027320849    1.389e-08    0.013700    0.000000    0.000000    0.000000
    32        -0.437376027562693    8.883e-09    0.013700    0.000000    0.000000    0.000000
    33        -0.437376027652810    4.122e-09    0.013700    0.000000    0.000000    0.000000
    34        -0.437376027709123    1.753e-09    0.013700    0.000000    0.000000    0.000000
    35        -0.437376027716245    6.895e-10    0.013700    0.000000    0.000000    0.000000
    36        -0.437376027715404    2.773e-10    0.013700    0.000000    0.000000    0.000000

      * MP2 total energy                      = -151.290999245757519
      * CCSD total energy                     = -151.311837132231716
      * CCSD(T) total energy                     = -151.324185665303474
*** Psi4 exiting successfully. Buy a developer a beer!
