                               Psi4 1.3.2 release

  ==> Input File <==

--------------------------------------------------------------------------
memory 4 GB

molecule  {
0 3
O    0.000000000000    0.000000000000   -1.233251413313
H    0.000000000000   -0.758665699200   -0.644190978731
H   -0.000000000000    0.758665699200   -0.644190978731
O    0.000000000000    0.000000000000    1.314431189428
}
set {
basis aug-cc-pvtz
reference uhf
e_convergence 10
scf_type pk
freeze_core true
}

set ccenergy {
e_convergence 10
r_convergence 10
}

e = energy('ccsd(t)')

print_out('Stephenergy {}'.format(e))

--------------------------------------------------------------------------

    Molecular point group: c2v

    Geometry (in Angstrom), charge = 0, multiplicity = 3:

       Center              X                  Y                   Z               Mass
    ------------   -----------------  -----------------  -----------------  -----------------
         O           -0.000000000000     0.000000000000    -1.233251413313    15.994914619570
         H            0.000000000000    -0.758665699200    -0.644190978731     1.007825032230
         H           -0.000000000000     0.758665699200    -0.644190978731     1.007825032230
         O           -0.000000000000     0.000000000000     1.314431189428    15.994914619570

  Charge       = 0
  Multiplicity = 3
  Basis Set: AUG-CC-PVTZ
    Blend: AUG-CC-PVTZ

    Orbital Energies [Eh]
    ---------------------

    Alpha Occupied:

       1A1   -20.735298     2A1   -20.567325     3A1    -1.449875
       4A1    -1.355188     5A1    -0.748682     1B1    -0.737282
       1B2    -0.720061     2B2    -0.636766     6A1    -0.581243
       2B1    -0.511429

    Alpha Virtual:

       7A1     0.036819     3B2     0.050249     8A1     0.118824
       3B1     0.130452     9A1     0.156326     4B2     0.166052
       4B1     0.190301     5B2     0.191186    10A1     0.193089
       1A2     0.263404    11A1     0.263915     6B2     0.275976
      12A1     0.291083     5B1     0.337488     7B2     0.395343
      13A1     0.407213    14A1     0.454450     8B2     0.475702
       9B2     0.631101     2A2     0.647392     6B1     0.652936
      15A1     0.659486    16A1     0.687770    17A1     0.711915
       3A2     0.723138    18A1     0.735486    10B2     0.767575
       7B1     0.791292     8B1     0.844446    19A1     0.885649
      11B2     0.889440     9B1     0.922439    12B2     0.945125
      20A1     0.982574     4A2     0.986723    21A1     1.023455
      10B1     1.032073    13B2     1.060635    22A1     1.085141
      14B2     1.135858    23A1     1.151032     5A2     1.211638
      11B1     1.226639    24A1     1.246321    15B2     1.247407
      16B2     1.447117     6A2     1.511758    25A1     1.571827
      12B1     1.580016    17B2     1.757361    26A1     1.809359
      27A1     1.859020    18B2     1.948528    13B1     2.005491
      28A1     2.036360    14B1     2.042109     7A2     2.076490
      19B2     2.083091    29A1     2.093826    30A1     2.174100
      15B1     2.178139     8A2     2.194890    31A1     2.214891
      20B2     2.220727     9A2     2.377370    32A1     2.395837
      16B1     2.438654    21B2     2.459943    33A1     2.470551
      17B1     2.512483    22B2     2.516898    34A1     2.553101
      18B1     2.732664    23B2     2.754235    35A1     2.756164
      10A2     2.883568    36A1     2.895906    24B2     2.954329
      25B2     3.687929    37A1     3.839403    11A2     4.034724
      19B1     4.078411    20B1     4.111803    38A1     4.213394
      26B2     4.237102    21B1     4.315965    27B2     4.333853
      12A2     4.381429    22B1     4.448702    39A1     4.487366
      40A1     4.570519    28B2     4.676113    41A1     4.754411
      29B2     4.913716    13A2     5.158982    30B2     5.161671
      31B2     5.274444    42A1     5.376655    23B1     5.521607
      43A1     5.695696    44A1     6.236811    24B1     6.392343
      32B2     6.401947    25B1     6.434965    14A2     6.452513
      45A1     6.471712    33B2     6.532510    46A1     6.611119
      34B2     6.728554    26B1     6.771743    47A1     6.879329
      27B1     6.880747    15A2     6.895327    48A1     6.965829
      49A1     6.992050    35B2     7.012662    28B1     7.172357
      29B1     7.261497    16A2     7.313072    17A2     7.358965
      36B2     7.380032    50A1     7.381998    51A1     7.604168
      37B2     7.955193    52A1     7.993658    38B2     8.807469
      53A1     9.934447    54A1    15.835103

    Beta Occupied:

       1A1   -20.656393     2A1   -20.565691     3A1    -1.352094
       4A1    -1.105734     1B2    -0.717906     5A1    -0.581065
       2B2    -0.547626     1B1    -0.509031

    Beta Virtual:

       6A1     0.037778     2B1     0.046182     3B2     0.050603
       7A1     0.052614     8A1     0.142115     3B1     0.159678
       4B2     0.167970     9A1     0.181478     5B2     0.193488
      10A1     0.194773     4B1     0.226315     1A2     0.263693
      11A1     0.267097     6B2     0.276270    12A1     0.299211
       5B1     0.346318     7B2     0.397667    13A1     0.433897
      14A1     0.459785     8B2     0.475862     9B2     0.630794
       2A2     0.661713     6B1     0.671818    15A1     0.674309
      16A1     0.711750    17A1     0.715424     3A2     0.723436
      10B2     0.783674    18A1     0.788770     7B1     0.824573
      19A1     0.895460    11B2     0.901834     8B1     0.919980
       9B1     0.935860    12B2     0.949861     4A2     0.988667
      20A1     0.989445    21A1     1.036683    10B1     1.060881
      13B2     1.061335    22A1     1.111387    14B2     1.145216
      23A1     1.207998     5A2     1.212846    15B2     1.247776
      11B1     1.248999    24A1     1.257296    16B2     1.453513
       6A2     1.511927    12B1     1.580850    25A1     1.590826
      17B2     1.762843    26A1     1.814496    27A1     1.901759
      18B2     1.951486    13B1     2.029681    19B2     2.097768
      28A1     2.100609    14B1     2.110801    29A1     2.144318
       7A2     2.147746     8A2     2.221998    30A1     2.234831
      31A1     2.243875    15B1     2.260494    20B2     2.291318
       9A2     2.386170    32A1     2.422769    16B1     2.466796
      21B2     2.474666    33A1     2.494349    17B1     2.513765
      22B2     2.525073    34A1     2.565472    18B1     2.733859
      23B2     2.757737    35A1     2.769959    10A2     2.884035
      36A1     2.904679    24B2     2.956735    25B2     3.688677
      37A1     3.849045    11A2     4.034277    19B1     4.112294
      20B1     4.229293    38A1     4.250225    26B2     4.255976
      21B1     4.331380    27B2     4.358247    12A2     4.381054
      22B1     4.453182    39A1     4.512602    40A1     4.662812
      28B2     4.678743    41A1     4.756989    29B2     4.915526
      13A2     5.159216    30B2     5.163122    31B2     5.275903
      42A1     5.379705    23B1     5.522155    43A1     5.697373
      44A1     6.242075    24B1     6.449059    32B2     6.459582
      14A2     6.528583    33B2     6.535266    25B1     6.541164
      45A1     6.547396    46A1     6.689193    26B1     6.774706
      34B2     6.792205    47A1     6.966649    15A2     7.008008
      48A1     7.017406    27B1     7.064893    49A1     7.118674
      35B2     7.121430    28B1     7.175278    29B1     7.264935
      16A2     7.314388    17A2     7.360301    36B2     7.381435
      50A1     7.393250    51A1     7.610243    37B2     7.956856
      52A1     7.997310    38B2     8.809717    53A1    10.005281
      54A1    15.836228

    Final Occupation by Irrep:
             A1    A2    B1    B2
    DOCC [     5,    0,    1,    2 ]
    SOCC [     1,    0,    1,    0 ]

  @UHF Final Energy:  -150.86635109769577

   => Energetics <=

    Nuclear Repulsion Energy =             26.4881641841588760
    One-Electron Energy =                -260.6303418528243583
    Two-Electron Energy =                  83.2758265709697127
    Total Energy =                       -150.8663510976957696

  UHF NO Occupations:
  HONO-2 :    5 A1 1.9970598
  HONO-1 :    6 A1 1.0000000
  HONO-0 :    2 B1 1.0000000
  LUNO+0 :    7 A1 0.0029402
  LUNO+1 :    3 B2 0.0017572
  LUNO+2 :    8 A1 0.0002768
  LUNO+3 :    3 B1 0.0000174

Computation Completed

Properties will be evaluated at   0.000000,   0.000000,   0.000000 [a0]

Properties computed using the SCF density matrix

  Nuclear Dipole Moment: [e a0]
     X:    -0.0000      Y:     0.0000      Z:    -1.2074

  Electronic Dipole Moment: [e a0]
     X:     0.0000      Y:     0.0000      Z:     2.0247

  Dipole Moment: [e a0]
     X:    -0.0000      Y:     0.0000      Z:     0.8173     Total:     0.8173

  Dipole Moment: [D]
     X:    -0.0000      Y:     0.0000      Z:     2.0774     Total:     2.0774

*** tstop() called on c5-3.compute.lan at Wed Mar 10 09:12:58 2021
Module time:
	user time   =      50.91 seconds =       0.85 minutes
	system time =       1.25 seconds =       0.02 minutes
	total time  =          5 seconds =       0.08 minutes
Total time:
	user time   =      50.91 seconds =       0.85 minutes
	system time =       1.25 seconds =       0.02 minutes
	total time  =          5 seconds =       0.08 minutes
 MINTS: Wrapper to libmints.
   by Justin Turney

   Calculation information:
      Number of threads:                12
      Number of atoms:                   4
      Number of AO shells:              46
      Number of SO shells:              37
      Number of primitives:             82
      Number of atomic orbitals:       160
      Number of basis functions:       138

      Number of irreps:                  4
      Integral cutoff                 0.00e+00
      Number of functions per irrep: [  54   17   29   38 ]

 OEINTS: Overlap, kinetic, potential, dipole, and quadrupole integrals
         stored in file 35.

      Computing two-electron integrals...done
      Computed 11508969 non-zero two-electron integrals.
        Stored in file 33.

*** tstart() called on c5-3.compute.lan
*** at Wed Mar 10 09:13:01 2021

	Wfn Parameters:
	--------------------
	Wavefunction         = CCSD_T
	Number of irreps     = 4
	Number of MOs        = 138
	Number of active MOs = 136
	AO-Basis             = NONE
	Semicanonical        = false
	Reference            = UHF
	Print Level          = 1

	IRREP	# MOs	# FZDC	# DOCC	# SOCC	# VIRT	# FZVR
	-----	-----	------	------	------	------	------
	 A1	   54	    2	    3	    1	    48	    0
	 A2	   17	    0	    0	    0	    17	    0
	 B1	   29	    0	    1	    1	    27	    0
	 B2	   38	    0	    2	    0	    36	    0
	Transforming integrals...
	IWL integrals will be deleted.
	(OO|OO)...
	Presorting SO-basis two-electron integrals.
	Sorting File: SO Ints (nn|nn) nbuckets = 1
	Transforming the one-electron integrals and constructing Fock matrices
	Starting AA/AB first half-transformation.
	Sorting AA/AB half-transformed integrals.
	Starting BB first half-transformation.
	Sorting BB half-transformed integrals.
	First half integral transformation complete.
	Starting AA second half-transformation.
	Starting AB second half-transformation.
	Starting BB second half-transformation.
	Two-electron integral transformation complete.
	(OO|OV)...
	Starting AA second half-transformation.
	Starting AB second half-transformation.
	Starting BB second half-transformation.
	Two-electron integral transformation complete.
	(OO|VV)...
	Starting AA second half-transformation.
	Starting AB second half-transformation.
	Starting BB second half-transformation.
	Two-electron integral transformation complete.
	(OV|OO)...
	Starting AA/AB first half-transformation.
	Sorting AA/AB half-transformed integrals.
	Starting BB first half-transformation.
	Sorting BB half-transformed integrals.
	First half integral transformation complete.
	Starting AA second half-transformation.
	Starting AB second half-transformation.
	Starting BB second half-transformation.
	Two-electron integral transformation complete.
	(OV|OV)...
	Starting AA second half-transformation.
	Starting AB second half-transformation.
	Starting BB second half-transformation.
	Two-electron integral transformation complete.
	(OV|VV)...
	Starting AA second half-transformation.
	Starting AB second half-transformation.
	Starting BB second half-transformation.
	Two-electron integral transformation complete.
	(VV|OO)...
	Starting AA/AB first half-transformation.
	Sorting AA/AB half-transformed integrals.
	Starting BB first half-transformation.
	Sorting BB half-transformed integrals.
	First half integral transformation complete.
	Starting AA second half-transformation.
	Starting AB second half-transformation.
	Starting BB second half-transformation.
	Two-electron integral transformation complete.
	(VV|OV)...
	Starting AA second half-transformation.
	Starting AB second half-transformation.
	Starting BB second half-transformation.
	Two-electron integral transformation complete.
	(VV|VV)...
	Starting AA second half-transformation.
	Starting AB second half-transformation.
	Starting BB second half-transformation.
	Two-electron integral transformation complete.
	Frozen core energy     =   -127.23841605122368

	Size of irrep 0 of <AB|CD> integrals:      5.040 (MW) /     40.320 (MB)
	Size of irrep 1 of <AB|CD> integrals:      3.197 (MW) /     25.576 (MB)
	Size of irrep 2 of <AB|CD> integrals:      3.640 (MW) /     29.124 (MB)
	Size of irrep 3 of <AB|CD> integrals:      4.783 (MW) /     38.264 (MB)
	Total:                                    16.660 (MW) /    133.283 (MB)

	Size of irrep 0 of <ab|cd> integrals:      5.382 (MW) /     43.059 (MB)
	Size of irrep 1 of <ab|cd> integrals:      3.389 (MW) /     27.114 (MB)
	Size of irrep 2 of <ab|cd> integrals:      3.936 (MW) /     31.490 (MB)
	Size of irrep 3 of <ab|cd> integrals:      5.018 (MW) /     40.141 (MB)
	Total:                                    17.726 (MW) /    141.804 (MB)

	Size of irrep 0 of <Ab|Cd> integrals:     22.024 (MW) /    176.194 (MB)
	Size of irrep 1 of <Ab|Cd> integrals:     13.170 (MW) /    105.357 (MB)
	Size of irrep 2 of <Ab|Cd> integrals:     15.140 (MW) /    121.119 (MB)
	Size of irrep 3 of <Ab|Cd> integrals:     19.598 (MW) /    156.787 (MB)
	Total:                                    69.932 (MW) /    559.457 (MB)

	Size of irrep 0 of <IA|BC> integrals:      1.469 (MW) /     11.748 (MB)
	Size of irrep 1 of <IA|BC> integrals:      0.694 (MW) /      5.550 (MB)
	Size of irrep 2 of <IA|BC> integrals:      0.908 (MW) /      7.266 (MB)
	Size of irrep 3 of <IA|BC> integrals:      1.198 (MW) /      9.588 (MB)
	Total:                                     4.269 (MW) /     34.152 (MB)

	Size of irrep 0 of <ia|bc> integrals:      1.178 (MW) /      9.426 (MB)
	Size of irrep 1 of <ia|bc> integrals:      0.527 (MW) /      4.212 (MB)
	Size of irrep 2 of <ia|bc> integrals:      0.663 (MW) /      5.301 (MB)
	Size of irrep 3 of <ia|bc> integrals:      0.999 (MW) /      7.992 (MB)
	Total:                                     3.366 (MW) /     26.931 (MB)

	Size of irrep 0 of <Ia|Bc> integrals:      1.521 (MW) /     12.164 (MB)
	Size of irrep 1 of <Ia|Bc> integrals:      0.711 (MW) /      5.690 (MB)
	Size of irrep 2 of <Ia|Bc> integrals:      0.949 (MW) /      7.595 (MB)
	Size of irrep 3 of <Ia|Bc> integrals:      1.222 (MW) /      9.775 (MB)
	Total:                                     4.403 (MW) /     35.225 (MB)

	Size of irrep 0 of <iA|bC> integrals:      1.140 (MW) /      9.123 (MB)
	Size of irrep 1 of <iA|bC> integrals:      0.512 (MW) /      4.094 (MB)
	Size of irrep 2 of <iA|bC> integrals:      0.634 (MW) /      5.074 (MB)
	Size of irrep 3 of <iA|bC> integrals:      0.978 (MW) /      7.827 (MB)
	Total:                                     3.265 (MW) /     26.118 (MB)

	Size of irrep 0 of tIjAb amplitudes:       0.084 (MW) /      0.676 (MB)
	Size of irrep 1 of tIjAb amplitudes:       0.022 (MW) /      0.174 (MB)
	Size of irrep 2 of tIjAb amplitudes:       0.039 (MW) /      0.311 (MB)
	Size of irrep 3 of tIjAb amplitudes:       0.062 (MW) /      0.496 (MB)
	Total:                                     0.207 (MW) /      1.657 (MB)

	Nuclear Rep. energy          =     26.48816418415888
	SCF energy                   =   -150.86635109769577
	One-electron energy          =    -88.67821642204882
	Two-electron (AA) energy     =     10.86237286369874
	Two-electron (BB) energy     =      5.70106500790515
	Two-electron (AB) energy     =     21.99867931981064
	Two-electron energy          =     38.56211719141453
	Reference energy             =   -150.86635109769909

*** tstop() called on c5-3.compute.lan at Wed Mar 10 09:13:26 2021
Module time:
	user time   =      63.77 seconds =       1.06 minutes
	system time =      13.23 seconds =       0.22 minutes
	total time  =         25 seconds =       0.42 minutes
Total time:
	user time   =     119.78 seconds =       2.00 minutes
	system time =      14.85 seconds =       0.25 minutes
	total time  =         33 seconds =       0.55 minutes
            **************************
            *                        *
            *        CCENERGY        *
            *                        *
            **************************

    Nuclear Rep. energy (wfn)     =   26.488164184158876
    SCF energy          (wfn)     = -150.866351097695770
    Reference energy    (file100) = -150.866351097699095

    Input parameters:
    -----------------
    Wave function   =     CCSD_T
    Reference wfn   =     UHF
    Brueckner       =     No
    Memory (Mbytes) =     4000.0
    Maxiter         =     50
    R_Convergence   =     1.0e-10
    E_Convergence   =     1.0e-10
    Restart         =     Yes
    DIIS            =     Yes
    AO Basis        =     NONE
    ABCD            =     NEW
    Cache Level     =     2
    Cache Type      =     LRU
    Print Level     =     1
    Num. of threads =     12
    # Amps to Print =     10
    Print MP2 Amps? =     No
    Analyze T2 Amps =     No
    Print Pair Ener =     No
    Local CC        =     No
    SCS-MP2         =     False
    SCSN-MP2        =     False
    SCS-CCSD        =     False

MP2 correlation energy -0.4188954302634781
                Solving CC Amplitude Equations
                ------------------------------
  Iter             Energy              RMS        T1Diag      D1Diag    New D1Diag    D2Diag
  ----     ---------------------    ---------   ----------  ----------  ----------   --------
     0        -0.418895430263478    0.000e+00    0.000000    0.000000    0.000000    0.000000
     1        -0.429459164122260    6.109e-02    0.012104    0.000000    0.000000    0.000000
     2        -0.437799176334254    1.858e-02    0.012828    0.000000    0.000000    0.000000
     3        -0.440131840907124    1.242e-02    0.015685    0.000000    0.000000    0.000000
     4        -0.440084295769368    4.798e-03    0.017001    0.000000    0.000000    0.000000
     5        -0.440046630218097    3.286e-03    0.017917    0.000000    0.000000    0.000000
     6        -0.440120359624804    1.271e-03    0.018355    0.000000    0.000000    0.000000
     7        -0.440130945020961    5.892e-04    0.018464    0.000000    0.000000    0.000000
     8        -0.440129888680586    2.249e-04    0.018516    0.000000    0.000000    0.000000
     9        -0.440133555363505    1.212e-04    0.018523    0.000000    0.000000    0.000000
    10        -0.440127884004176    6.273e-05    0.018537    0.000000    0.000000    0.000000
    11        -0.440128497459735    3.015e-05    0.018537    0.000000    0.000000    0.000000
    12        -0.440128311556245    1.186e-05    0.018539    0.000000    0.000000    0.000000
    13        -0.440128507206072    6.253e-06    0.018538    0.000000    0.000000    0.000000
    14        -0.440128726883146    2.503e-06    0.018538    0.000000    0.000000    0.000000
    15        -0.440128728719335    1.074e-06    0.018538    0.000000    0.000000    0.000000
    16        -0.440128734334777    4.705e-07    0.018538    0.000000    0.000000    0.000000
    17        -0.440128735962902    1.610e-07    0.018538    0.000000    0.000000    0.000000
    18        -0.440128733922878    8.048e-08    0.018538    0.000000    0.000000    0.000000

      * MP2 total energy                      = -151.285246527962585
      * CCSD total energy                     = -151.306479831566492
      * CCSD(T) total energy                     = -151.319345989658672
*** Psi4 exiting successfully. Buy a developer a beer!
