                               Psi4 1.3.2 release

  ==> Input File <==

--------------------------------------------------------------------------
memory 4 GB

molecule  {
0 3
O   -1.504262781504   -0.001404642696    0.000000000000
H   -0.554288693418    0.157910210555    0.000000000000
H   -1.896509227482    0.879917749159    0.000000000000
O    1.658685330944   -0.063987953753    0.000000000000
}
set {
basis aug-cc-pvtz
reference uhf
e_convergence 10
scf_type pk
freeze_core true
}

set ccenergy {
e_convergence 10
r_convergence 10
}

e = energy('ccsd(t)')

print_out('Stephenergy {}'.format(e))

--------------------------------------------------------------------------

    Molecular point group: cs

    Geometry (in Angstrom), charge = 0, multiplicity = 3:

       Center              X                  Y                   Z               Mass
    ------------   -----------------  -----------------  -----------------  -----------------
         O           -1.504262781504    -0.001404642696     0.000000000000    15.994914619570
         H           -0.554288693418     0.157910210555     0.000000000000     1.007825032230
         H           -1.896509227482     0.879917749159     0.000000000000     1.007825032230
         O            1.658685330944    -0.063987953753     0.000000000000    15.994914619570

  Charge       = 0
  Multiplicity = 3
  Basis Set: AUG-CC-PVTZ
    Blend: AUG-CC-PVTZ

    Orbital Energies [Eh]
    ---------------------

    Alpha Occupied:

       1Ap   -20.733008     2Ap   -20.559118     3Ap    -1.442339
       4Ap    -1.342031     5Ap    -0.733105     1App   -0.732735
       6Ap    -0.709233     7Ap    -0.634328     8Ap    -0.574714
       2App   -0.501775

    Alpha Virtual:

       9Ap     0.034171    10Ap     0.053483    11Ap     0.128224
       3App    0.132982    12Ap     0.148108    13Ap     0.160680
      14Ap     0.183916     4App    0.186872    15Ap     0.214153
      16Ap     0.241944    17Ap     0.264061     5App    0.286370
      18Ap     0.303856     6App    0.320599    19Ap     0.364280
      20Ap     0.406248    21Ap     0.459827    22Ap     0.568655
       7App    0.602675    23Ap     0.608783    24Ap     0.626747
      25Ap     0.681970     8App    0.709364    26Ap     0.714596
       9App    0.736779    10App    0.748812    27Ap     0.750577
      28Ap     0.811542    11App    0.825990    29Ap     0.836854
      12App    0.890990    30Ap     0.891821    31Ap     0.922937
      32Ap     0.944859    13App    0.947737    33Ap     0.951229
      14App    0.971266    34Ap     0.978501    35Ap     1.042072
      36Ap     1.136031    15App    1.153173    37Ap     1.169312
      38Ap     1.184931    39Ap     1.260395    16App    1.295016
      40Ap     1.316839    17App    1.526451    41Ap     1.587267
      18App    1.596963    42Ap     1.715833    43Ap     1.809783
      44Ap     1.841801    45Ap     1.975798    19App    1.977785
      46Ap     1.977845    20App    2.013255    47Ap     2.017858
      21App    2.048398    48Ap     2.059768    22App    2.122557
      49Ap     2.152260    50Ap     2.175769    23App    2.212573
      24App    2.302279    51Ap     2.312101    52Ap     2.338342
      53Ap     2.415079    25App    2.440894    54Ap     2.457347
      55Ap     2.490463    26App    2.526965    56Ap     2.629668
      57Ap     2.709147    27App    2.727581    58Ap     2.736458
      59Ap     2.858726    60Ap     2.933328    28App    2.942022
      61Ap     3.691903    62Ap     3.890140    29App    4.034719
      30App    4.062497    63Ap     4.074155    31App    4.176259
      64Ap     4.207141    65Ap     4.262345    32App    4.300698
      33App    4.390083    66Ap     4.407803    34App    4.428180
      67Ap     4.445190    68Ap     4.601401    69Ap     4.775650
      70Ap     4.952805    35App    5.150452    71Ap     5.167577
      72Ap     5.295034    73Ap     5.382832    36App    5.520010
      74Ap     5.687526    75Ap     6.186464    37App    6.312426
      76Ap     6.312458    38App    6.375502    77Ap     6.378206
      39App    6.518011    78Ap     6.519660    79Ap     6.559542
      80Ap     6.637053    40App    6.735495    81Ap     6.814439
      41App    6.820075    82Ap     6.918745    42App    6.936867
      83Ap     6.960994    84Ap     7.050797    43App    7.146091
      44App    7.269961    85Ap     7.321222    45App    7.321665
      86Ap     7.363487    46App    7.434599    87Ap     7.641695
      88Ap     7.942839    89Ap     7.955161    90Ap     8.800850
      91Ap     9.513796    92Ap    16.246566

    Beta Occupied:

       1Ap   -20.654223     2Ap   -20.559247     3Ap    -1.342604
       4Ap    -1.099871     5Ap    -0.708395     6Ap    -0.579660
       7Ap    -0.541154     1App   -0.501819

    Beta Virtual:

       8Ap     0.034334     2App    0.049413     9Ap     0.049663
      10Ap     0.055181    11Ap     0.143786    12Ap     0.152990
       3App    0.161305    13Ap     0.177972    14Ap     0.207799
      15Ap     0.225551     4App    0.227238    16Ap     0.250645
      17Ap     0.265326     5App    0.286575    18Ap     0.305994
       6App    0.324332    19Ap     0.368171    20Ap     0.417115
      21Ap     0.461140    22Ap     0.572243    23Ap     0.627571
       7App    0.635071    24Ap     0.640442    25Ap     0.686771
      26Ap     0.715262     8App    0.721424     9App    0.739925
      10App    0.750507    27Ap     0.767021    28Ap     0.817935
      29Ap     0.867732    11App    0.869071    30Ap     0.919895
      12App    0.941592    31Ap     0.941786    13App    0.949769
      32Ap     0.952634    33Ap     0.969903    34Ap     1.017299
      14App    1.020074    35Ap     1.044459    15App    1.156301
      36Ap     1.163576    37Ap     1.172816    38Ap     1.216195
      39Ap     1.263684    16App    1.305624    40Ap     1.325408
      17App    1.527140    41Ap     1.589486    18App    1.598420
      42Ap     1.742228    43Ap     1.814984    44Ap     1.852651
      45Ap     1.983419    46Ap     2.015745    19App    2.015757
      20App    2.053723    47Ap     2.064681    21App    2.170700
      48Ap     2.175798    22App    2.179625    49Ap     2.193625
      50Ap     2.244535    23App    2.249811    24App    2.305731
      51Ap     2.317597    52Ap     2.361211    53Ap     2.419430
      25App    2.443610    54Ap     2.458218    55Ap     2.496737
      26App    2.535436    56Ap     2.636824    57Ap     2.726799
      27App    2.728876    58Ap     2.739147    59Ap     2.860575
      60Ap     2.937793    28App    2.942649    61Ap     3.692580
      62Ap     3.892512    29App    4.037515    30App    4.144829
      63Ap     4.192121    64Ap     4.242882    31App    4.262442
      65Ap     4.274167    32App    4.300741    33App    4.390151
      66Ap     4.411366    34App    4.428851    67Ap     4.489668
      68Ap     4.603974    69Ap     4.777266    70Ap     4.954854
      35App    5.150438    71Ap     5.167865    72Ap     5.295266
      73Ap     5.384062    36App    5.520070    74Ap     5.687866
      75Ap     6.187730    76Ap     6.421276    37App    6.421281
      38App    6.450685    77Ap     6.453433    78Ap     6.534887
      39App    6.571861    79Ap     6.600184    80Ap     6.681971
      40App    6.741473    81Ap     6.920325    41App    7.005166
      82Ap     7.006755    42App    7.046032    83Ap     7.068187
      84Ap     7.130584    43App    7.148679    44App    7.270147
      85Ap     7.321572    45App    7.322435    86Ap     7.364250
      46App    7.435011    87Ap     7.642553    88Ap     7.943926
      89Ap     7.955437    90Ap     8.802330    91Ap     9.588860
      92Ap    16.246840

    Final Occupation by Irrep:
             Ap   App
    DOCC [     7,    1 ]
    SOCC [     1,    1 ]

  @UHF Final Energy:  -150.87430069151901

   => Energetics <=

    Nuclear Repulsion Energy =             22.8904293006304620
    One-Electron Energy =                -253.5801017855825137
    Two-Electron Energy =                  79.8153717934330444
    Total Energy =                       -150.8743006915190108

  UHF NO Occupations:
  HONO-2 :    7 Ap 1.9970282
  HONO-1 :    8 Ap 1.0000000
  HONO-0 :    2App 1.0000000
  LUNO+0 :    9 Ap 0.0029718
  LUNO+1 :   10 Ap 0.0017161
  LUNO+2 :   11 Ap 0.0000024
  LUNO+3 :   12 Ap 0.0000017

Computation Completed

Properties will be evaluated at   0.000000,   0.000000,   0.000000 [a0]

Properties computed using the SCF density matrix

  Nuclear Dipole Moment: [e a0]
     X:    -2.2968      Y:     0.9726      Z:     0.0000

  Electronic Dipole Moment: [e a0]
     X:     2.7580      Y:    -0.2958      Z:     0.0000

  Dipole Moment: [e a0]
     X:     0.4612      Y:     0.6768      Z:     0.0000     Total:     0.8190

  Dipole Moment: [D]
     X:     1.1722      Y:     1.7202      Z:     0.0000     Total:     2.0817

*** tstop() called on d3-5.compute.lan at Wed Mar 10 10:57:49 2021
Module time:
	user time   =      62.32 seconds =       1.04 minutes
	system time =       3.09 seconds =       0.05 minutes
	total time  =          7 seconds =       0.12 minutes
Total time:
	user time   =      62.32 seconds =       1.04 minutes
	system time =       3.09 seconds =       0.05 minutes
	total time  =          7 seconds =       0.12 minutes
 MINTS: Wrapper to libmints.
   by Justin Turney

   Calculation information:
      Number of threads:                12
      Number of atoms:                   4
      Number of AO shells:              46
      Number of SO shells:              46
      Number of primitives:             82
      Number of atomic orbitals:       160
      Number of basis functions:       138

      Number of irreps:                  2
      Integral cutoff                 0.00e+00
      Number of functions per irrep: [  92   46 ]

 OEINTS: Overlap, kinetic, potential, dipole, and quadrupole integrals
         stored in file 35.

      Computing two-electron integrals...done
      Computed 22936385 non-zero two-electron integrals.
        Stored in file 33.

*** tstart() called on d3-5.compute.lan
*** at Wed Mar 10 10:57:53 2021

	Wfn Parameters:
	--------------------
	Wavefunction         = CCSD_T
	Number of irreps     = 2
	Number of MOs        = 138
	Number of active MOs = 136
	AO-Basis             = NONE
	Semicanonical        = false
	Reference            = UHF
	Print Level          = 1

	IRREP	# MOs	# FZDC	# DOCC	# SOCC	# VIRT	# FZVR
	-----	-----	------	------	------	------	------
	 Ap	   92	    2	    5	    1	    84	    0
	 App	   46	    0	    1	    1	    44	    0
	Transforming integrals...
	IWL integrals will be deleted.
	(OO|OO)...
	Presorting SO-basis two-electron integrals.
	Sorting File: SO Ints (nn|nn) nbuckets = 1
	Transforming the one-electron integrals and constructing Fock matrices
	Starting AA/AB first half-transformation.
	Sorting AA/AB half-transformed integrals.
	Starting BB first half-transformation.
	Sorting BB half-transformed integrals.
	First half integral transformation complete.
	Starting AA second half-transformation.
	Starting AB second half-transformation.
	Starting BB second half-transformation.
	Two-electron integral transformation complete.
	(OO|OV)...
	Starting AA second half-transformation.
	Starting AB second half-transformation.
	Starting BB second half-transformation.
	Two-electron integral transformation complete.
	(OO|VV)...
	Starting AA second half-transformation.
	Starting AB second half-transformation.
	Starting BB second half-transformation.
	Two-electron integral transformation complete.
	(OV|OO)...
	Starting AA/AB first half-transformation.
	Sorting AA/AB half-transformed integrals.
	Starting BB first half-transformation.
	Sorting BB half-transformed integrals.
	First half integral transformation complete.
	Starting AA second half-transformation.
	Starting AB second half-transformation.
	Starting BB second half-transformation.
	Two-electron integral transformation complete.
	(OV|OV)...
	Starting AA second half-transformation.
	Starting AB second half-transformation.
	Starting BB second half-transformation.
	Two-electron integral transformation complete.
	(OV|VV)...
	Starting AA second half-transformation.
	Starting AB second half-transformation.
	Starting BB second half-transformation.
	Two-electron integral transformation complete.
	(VV|OO)...
	Starting AA/AB first half-transformation.
	Sorting AA/AB half-transformed integrals.
	Starting BB first half-transformation.
	Sorting BB half-transformed integrals.
	First half integral transformation complete.
	Starting AA second half-transformation.
	Starting AB second half-transformation.
	Starting BB second half-transformation.
	Two-electron integral transformation complete.
	(VV|OV)...
	Starting AA second half-transformation.
	Starting AB second half-transformation.
	Starting BB second half-transformation.
	Two-electron integral transformation complete.
	(VV|VV)...
	Starting AA second half-transformation.
	Starting AB second half-transformation.
	Starting BB second half-transformation.
	Two-electron integral transformation complete.
	Frozen core energy     =   -125.85403266256192

	Size of irrep 0 of <AB|CD> integrals:     19.643 (MW) /    157.141 (MB)
	Size of irrep 1 of <AB|CD> integrals:     13.660 (MW) /    109.283 (MB)
	Total:                                    33.303 (MW) /    266.424 (MB)

	Size of irrep 0 of <ab|cd> integrals:     20.794 (MW) /    166.349 (MB)
	Size of irrep 1 of <ab|cd> integrals:     14.631 (MW) /    117.045 (MB)
	Total:                                    35.424 (MW) /    283.394 (MB)

	Size of irrep 0 of <Ab|Cd> integrals:     83.174 (MW) /    665.395 (MB)
	Size of irrep 1 of <Ab|Cd> integrals:     56.550 (MW) /    452.403 (MB)
	Total:                                   139.725 (MW) /   1117.798 (MB)

	Size of irrep 0 of <IA|BC> integrals:      5.323 (MW) /     42.586 (MB)
	Size of irrep 1 of <IA|BC> integrals:      3.193 (MW) /     25.547 (MB)
	Total:                                     8.517 (MW) /     68.133 (MB)

	Size of irrep 0 of <ia|bc> integrals:      4.348 (MW) /     34.780 (MB)
	Size of irrep 1 of <ia|bc> integrals:      2.372 (MW) /     18.972 (MB)
	Total:                                     6.719 (MW) /     53.752 (MB)

	Size of irrep 0 of <Ia|Bc> integrals:      5.472 (MW) /     43.776 (MB)
	Size of irrep 1 of <Ia|Bc> integrals:      3.309 (MW) /     26.470 (MB)
	Total:                                     8.781 (MW) /     70.246 (MB)

	Size of irrep 0 of <iA|bC> integrals:      4.232 (MW) /     33.853 (MB)
	Size of irrep 1 of <iA|bC> integrals:      2.286 (MW) /     18.289 (MB)
	Total:                                     6.518 (MW) /     52.142 (MB)

	Size of irrep 0 of tIjAb amplitudes:       0.292 (MW) /      2.335 (MB)
	Size of irrep 1 of tIjAb amplitudes:       0.120 (MW) /      0.963 (MB)
	Total:                                     0.412 (MW) /      3.297 (MB)

	Nuclear Rep. energy          =     22.89042930063046
	SCF energy                   =   -150.87430069151901
	One-electron energy          =    -84.37763325866497
	Two-electron (AA) energy     =     10.13473772599973
	Two-electron (BB) energy     =      5.39047533619562
	Two-electron (AB) energy     =     20.94172286688054
	Two-electron energy          =     36.46693592907589
	Reference energy             =   -150.87430069152055

*** tstop() called on d3-5.compute.lan at Wed Mar 10 10:58:37 2021
Module time:
	user time   =     263.40 seconds =       4.39 minutes
	system time =      21.38 seconds =       0.36 minutes
	total time  =         44 seconds =       0.73 minutes
Total time:
	user time   =     332.97 seconds =       5.55 minutes
	system time =      25.43 seconds =       0.42 minutes
	total time  =         55 seconds =       0.92 minutes
            **************************
            *                        *
            *        CCENERGY        *
            *                        *
            **************************

    Nuclear Rep. energy (wfn)     =   22.890429300630462
    SCF energy          (wfn)     = -150.874300691519011
    Reference energy    (file100) = -150.874300691520546

    Input parameters:
    -----------------
    Wave function   =     CCSD_T
    Reference wfn   =     UHF
    Brueckner       =     No
    Memory (Mbytes) =     4000.0
    Maxiter         =     50
    R_Convergence   =     1.0e-10
    E_Convergence   =     1.0e-10
    Restart         =     Yes
    DIIS            =     Yes
    AO Basis        =     NONE
    ABCD            =     NEW
    Cache Level     =     2
    Cache Type      =     LRU
    Print Level     =     1
    Num. of threads =     12
    # Amps to Print =     10
    Print MP2 Amps? =     No
    Analyze T2 Amps =     No
    Print Pair Ener =     No
    Local CC        =     No
    SCS-MP2         =     False
    SCSN-MP2        =     False
    SCS-CCSD        =     False

MP2 correlation energy -0.4167719860502376
                Solving CC Amplitude Equations
                ------------------------------
  Iter             Energy              RMS        T1Diag      D1Diag    New D1Diag    D2Diag
  ----     ---------------------    ---------   ----------  ----------  ----------   --------
     0        -0.416771986050238    0.000e+00    0.000000    0.000000    0.000000    0.000000
     1        -0.427444504409864    5.701e-02    0.010578    0.000000    0.000000    0.000000
     2        -0.435552881459541    1.694e-02    0.011053    0.000000    0.000000    0.000000
     3        -0.437683297544447    8.600e-03    0.012931    0.000000    0.000000    0.000000
     4        -0.437557381054552    2.539e-03    0.013299    0.000000    0.000000    0.000000
     5        -0.437542857805869    1.322e-03    0.013456    0.000000    0.000000    0.000000
     6        -0.437570060244028    5.157e-04    0.013478    0.000000    0.000000    0.000000
     7        -0.437574692537742    2.655e-04    0.013473    0.000000    0.000000    0.000000
     8        -0.437575303731809    9.994e-05    0.013468    0.000000    0.000000    0.000000
     9        -0.437576682696489    7.460e-05    0.013469    0.000000    0.000000    0.000000
    10        -0.437575116385027    6.444e-05    0.013470    0.000000    0.000000    0.000000
    11        -0.437575264281204    6.157e-05    0.013471    0.000000    0.000000    0.000000
    12        -0.437574973432053    5.988e-05    0.013474    0.000000    0.000000    0.000000
    13        -0.437574967785745    5.873e-05    0.013477    0.000000    0.000000    0.000000
    14        -0.437576148162617    5.685e-05    0.013495    0.000000    0.000000    0.000000
    15        -0.437576527334329    5.030e-05    0.013568    0.000000    0.000000    0.000000
    16        -0.437576307627761    3.364e-05    0.013709    0.000000    0.000000    0.000000
    17        -0.437575959971391    1.624e-05    0.013779    0.000000    0.000000    0.000000
    18        -0.437575829390423    7.621e-06    0.013796    0.000000    0.000000    0.000000
    19        -0.437576090137042    3.367e-06    0.013801    0.000000    0.000000    0.000000
    20        -0.437576201952530    1.508e-06    0.013802    0.000000    0.000000    0.000000
    21        -0.437576209950891    5.934e-07    0.013802    0.000000    0.000000    0.000000
    22        -0.437576211327910    2.816e-07    0.013802    0.000000    0.000000    0.000000
    23        -0.437576210235717    1.463e-07    0.013802    0.000000    0.000000    0.000000
    24        -0.437576209569387    6.086e-08    0.013802    0.000000    0.000000    0.000000
    25        -0.437576210541830    3.325e-08    0.013802    0.000000    0.000000    0.000000
    26        -0.437576211000824    2.581e-08    0.013802    0.000000    0.000000    0.000000
    27        -0.437576211158245    2.418e-08    0.013802    0.000000    0.000000    0.000000
    28        -0.437576211105688    2.343e-08    0.013802    0.000000    0.000000    0.000000
    29        -0.437576210940783    2.276e-08    0.013802    0.000000    0.000000    0.000000
    30        -0.437576210673514    2.166e-08    0.013802    0.000000    0.000000    0.000000
    31        -0.437576210873659    1.836e-08    0.013802    0.000000    0.000000    0.000000
    32        -0.437576211219915    9.638e-09    0.013802    0.000000    0.000000    0.000000
    33        -0.437576211323045    4.212e-09    0.013802    0.000000    0.000000    0.000000
    34        -0.437576211375965    1.721e-09    0.013802    0.000000    0.000000    0.000000
    35        -0.437576211382996    6.766e-10    0.013802    0.000000    0.000000    0.000000
    36        -0.437576211382809    2.895e-10    0.013802    0.000000    0.000000    0.000000

      * MP2 total energy                      = -151.291072677570781
      * CCSD total energy                     = -151.311876902902725
      * CCSD(T) total energy                     = -151.324252236180257
*** Psi4 exiting successfully. Buy a developer a beer!
