                               Psi4 1.3.2 release

  ==> Input File <==

--------------------------------------------------------------------------
memory 4 GB

molecule  {
0 3
O    0.000000000000    0.000000000000   -1.260897717301
H    0.000000000000   -0.762389765100   -0.672080710575
H   -0.000000000000    0.762389765100   -0.672080710575
O    0.000000000000    0.000000000000    1.345592106725
}
set {
basis aug-cc-pvtz
reference uhf
e_convergence 10
scf_type pk
freeze_core true
}

set ccenergy {
e_convergence 10
r_convergence 10
}

e = energy('ccsd(t)')

print_out('Stephenergy {}'.format(e))

--------------------------------------------------------------------------

    Molecular point group: c2v

    Geometry (in Angstrom), charge = 0, multiplicity = 3:

       Center              X                  Y                   Z               Mass
    ------------   -----------------  -----------------  -----------------  -----------------
         O           -0.000000000000     0.000000000000    -1.260897717301    15.994914619570
         H            0.000000000000    -0.762389765100    -0.672080710575     1.007825032230
         H           -0.000000000000     0.762389765100    -0.672080710575     1.007825032230
         O           -0.000000000000     0.000000000000     1.345592106725    15.994914619570

  Charge       = 0
  Multiplicity = 3
  Basis Set: AUG-CC-PVTZ
    Blend: AUG-CC-PVTZ

    Orbital Energies [Eh]
    ---------------------

    Alpha Occupied:

       1A1   -20.734793     2A1   -20.567934     3A1    -1.448203
       4A1    -1.353391     5A1    -0.746224     1B1    -0.736380
       1B2    -0.718365     2B2    -0.636309     6A1    -0.581202
       2B1    -0.511051

    Alpha Virtual:

       7A1     0.036749     3B2     0.050210     8A1     0.119823
       3B1     0.130673     9A1     0.155618     4B2     0.166294
       4B1     0.189650     5B2     0.190646    10A1     0.192358
       1A2     0.263414    11A1     0.263996     6B2     0.274201
      12A1     0.289460     5B1     0.335627     7B2     0.393741
      13A1     0.403929    14A1     0.453227     8B2     0.475052
       9B2     0.632188     2A2     0.644452     6B1     0.650945
      15A1     0.659263    16A1     0.678626    17A1     0.709866
       3A2     0.723451    18A1     0.735084    10B2     0.766323
       7B1     0.789874     8B1     0.838364    19A1     0.882074
      11B2     0.886954     9B1     0.921703    12B2     0.942668
      20A1     0.979130     4A2     0.980620    21A1     1.024657
      10B1     1.027428    13B2     1.057233    22A1     1.092449
      14B2     1.123319    23A1     1.139884     5A2     1.207145
      11B1     1.219253    24A1     1.238814    15B2     1.250689
      16B2     1.437689     6A2     1.510236    25A1     1.563908
      12B1     1.582002    17B2     1.759118    26A1     1.804516
      27A1     1.848743    18B2     1.949392    13B1     2.004563
      28A1     2.030128    14B1     2.037164     7A2     2.073991
      19B2     2.075505    29A1     2.088221    30A1     2.167424
      15B1     2.169570     8A2     2.178540    20B2     2.204826
      31A1     2.204995     9A2     2.372886    32A1     2.378561
      16B1     2.423728    21B2     2.437985    33A1     2.460370
      17B1     2.509940    22B2     2.521054    34A1     2.538201
      35A1     2.731614    18B1     2.732184    23B2     2.749479
      10A2     2.881789    36A1     2.890685    24B2     2.939215
      25B2     3.678044    37A1     3.814956    11A2     4.032310
      19B1     4.074985    20B1     4.108328    38A1     4.208732
      26B2     4.229204    21B1     4.310381    27B2     4.313386
      12A2     4.380402    22B1     4.441935    39A1     4.452547
      40A1     4.582804    28B2     4.652441    41A1     4.745108
      29B2     4.893312    30B2     5.150643    13A2     5.151348
      31B2     5.273118    42A1     5.361419    23B1     5.511301
      43A1     5.692146    44A1     6.220106    24B1     6.390602
      32B2     6.398821    25B1     6.423012    14A2     6.442736
      45A1     6.462272    33B2     6.530410    46A1     6.585987
      34B2     6.699834    26B1     6.767463    27B1     6.879705
      47A1     6.882176    15A2     6.894739    48A1     6.961383
      49A1     6.981500    35B2     7.006261    28B1     7.165994
      29B1     7.257957    16A2     7.305505    17A2     7.358405
      50A1     7.373563    36B2     7.373636    51A1     7.585030
      37B2     7.940555    52A1     7.980528    38B2     8.790193
      53A1     9.746425    54A1    15.740746

    Beta Occupied:

       1A1   -20.655936     2A1   -20.566553     3A1    -1.350472
       4A1    -1.104551     1B2    -0.716624     5A1    -0.580704
       2B2    -0.546929     1B1    -0.509046

    Beta Virtual:

       6A1     0.037542     2B1     0.046563     3B2     0.050561
       7A1     0.052536     8A1     0.142002     3B1     0.159897
       4B2     0.168266     9A1     0.182346     5B2     0.192908
      10A1     0.193941     4B1     0.226589     1A2     0.263697
      11A1     0.267509     6B2     0.274516    12A1     0.297353
       5B1     0.343672     7B2     0.395965    13A1     0.431756
      14A1     0.457383     8B2     0.475179     9B2     0.631877
       2A2     0.658716     6B1     0.669982    15A1     0.673824
      16A1     0.702868    17A1     0.711918     3A2     0.723802
      10B2     0.782333    18A1     0.791607     7B1     0.818115
      19A1     0.891855    11B2     0.901026     8B1     0.918047
       9B1     0.935049    12B2     0.946510     4A2     0.982582
      20A1     0.984765    21A1     1.034317    10B1     1.057581
      13B2     1.058101    22A1     1.112972    14B2     1.132169
      23A1     1.204549     5A2     1.208295    11B1     1.241245
      24A1     1.250682    15B2     1.251018    16B2     1.443801
       6A2     1.510459    12B1     1.582814    25A1     1.584315
      17B2     1.763374    26A1     1.813201    27A1     1.886965
      18B2     1.952482    13B1     2.028058    28A1     2.088613
      19B2     2.090070    14B1     2.103558    29A1     2.137283
       7A2     2.141627     8A2     2.209962    30A1     2.230267
      31A1     2.235467    15B1     2.253535    20B2     2.274738
       9A2     2.380986    32A1     2.414140    16B1     2.453478
      21B2     2.455701    33A1     2.479057    17B1     2.510769
      22B2     2.528812    34A1     2.550608    18B1     2.733253
      35A1     2.744537    23B2     2.752933    10A2     2.882170
      36A1     2.898323    24B2     2.940938    25B2     3.678673
      37A1     3.825232    11A2     4.031945    19B1     4.108106
      20B1     4.228375    38A1     4.242401    26B2     4.247229
      21B1     4.323930    27B2     4.338496    12A2     4.380074
      22B1     4.446394    39A1     4.482990    28B2     4.655017
      40A1     4.671229    41A1     4.747197    29B2     4.894845
      13A2     5.151572    30B2     5.151923    31B2     5.274207
      42A1     5.363894    23B1     5.511747    43A1     5.693799
      44A1     6.225870    24B1     6.447756    32B2     6.456795
      14A2     6.518838    25B1     6.529717    33B2     6.534039
      45A1     6.538084    46A1     6.664060    34B2     6.763256
      26B1     6.769452    47A1     6.958247    15A2     7.007493
      48A1     7.015940    27B1     7.063355    35B2     7.115231
      49A1     7.118946    28B1     7.169151    29B1     7.261099
      16A2     7.306663    17A2     7.359512    36B2     7.374535
      50A1     7.381970    51A1     7.590858    37B2     7.942023
      52A1     7.983644    38B2     8.792100    53A1     9.818201
      54A1    15.741703

    Final Occupation by Irrep:
             A1    A2    B1    B2
    DOCC [     5,    0,    1,    2 ]
    SOCC [     1,    0,    1,    0 ]

  @UHF Final Energy:  -150.86751451370631

   => Energetics <=

    Nuclear Repulsion Energy =             26.0553962253542153
    One-Electron Energy =                -259.7811556659777921
    Two-Electron Energy =                  82.8582449269172656
    Total Energy =                       -150.8675145137062827

  UHF NO Occupations:
  HONO-2 :    5 A1 1.9970621
  HONO-1 :    6 A1 1.0000000
  HONO-0 :    2 B1 1.0000000
  LUNO+0 :    7 A1 0.0029379
  LUNO+1 :    3 B2 0.0017487
  LUNO+2 :    8 A1 0.0002159
  LUNO+3 :    3 B1 0.0000125

Computation Completed

Properties will be evaluated at   0.000000,   0.000000,   0.000000 [a0]

Properties computed using the SCF density matrix

  Nuclear Dipole Moment: [e a0]
     X:    -0.0000      Y:     0.0000      Z:    -1.2597

  Electronic Dipole Moment: [e a0]
     X:     0.0000      Y:     0.0000      Z:     2.0755

  Dipole Moment: [e a0]
     X:    -0.0000      Y:     0.0000      Z:     0.8158     Total:     0.8158

  Dipole Moment: [D]
     X:    -0.0000      Y:     0.0000      Z:     2.0736     Total:     2.0736

*** tstop() called on c1-11.compute.lan at Wed Mar 10 09:16:27 2021
Module time:
	user time   =      38.26 seconds =       0.64 minutes
	system time =       2.37 seconds =       0.04 minutes
	total time  =          6 seconds =       0.10 minutes
Total time:
	user time   =      38.26 seconds =       0.64 minutes
	system time =       2.37 seconds =       0.04 minutes
	total time  =          6 seconds =       0.10 minutes
 MINTS: Wrapper to libmints.
   by Justin Turney

   Calculation information:
      Number of threads:                12
      Number of atoms:                   4
      Number of AO shells:              46
      Number of SO shells:              37
      Number of primitives:             82
      Number of atomic orbitals:       160
      Number of basis functions:       138

      Number of irreps:                  4
      Integral cutoff                 0.00e+00
      Number of functions per irrep: [  54   17   29   38 ]

 OEINTS: Overlap, kinetic, potential, dipole, and quadrupole integrals
         stored in file 35.

      Computing two-electron integrals...done
      Computed 11504223 non-zero two-electron integrals.
        Stored in file 33.

*** tstart() called on c1-11.compute.lan
*** at Wed Mar 10 09:16:30 2021

	Wfn Parameters:
	--------------------
	Wavefunction         = CCSD_T
	Number of irreps     = 4
	Number of MOs        = 138
	Number of active MOs = 136
	AO-Basis             = NONE
	Semicanonical        = false
	Reference            = UHF
	Print Level          = 1

	IRREP	# MOs	# FZDC	# DOCC	# SOCC	# VIRT	# FZVR
	-----	-----	------	------	------	------	------
	 A1	   54	    2	    3	    1	    48	    0
	 A2	   17	    0	    0	    0	    17	    0
	 B1	   29	    0	    1	    1	    27	    0
	 B2	   38	    0	    2	    0	    36	    0
	Transforming integrals...
	IWL integrals will be deleted.
	(OO|OO)...
	Presorting SO-basis two-electron integrals.
	Sorting File: SO Ints (nn|nn) nbuckets = 1
	Transforming the one-electron integrals and constructing Fock matrices
	Starting AA/AB first half-transformation.
	Sorting AA/AB half-transformed integrals.
	Starting BB first half-transformation.
	Sorting BB half-transformed integrals.
	First half integral transformation complete.
	Starting AA second half-transformation.
	Starting AB second half-transformation.
	Starting BB second half-transformation.
	Two-electron integral transformation complete.
	(OO|OV)...
	Starting AA second half-transformation.
	Starting AB second half-transformation.
	Starting BB second half-transformation.
	Two-electron integral transformation complete.
	(OO|VV)...
	Starting AA second half-transformation.
	Starting AB second half-transformation.
	Starting BB second half-transformation.
	Two-electron integral transformation complete.
	(OV|OO)...
	Starting AA/AB first half-transformation.
	Sorting AA/AB half-transformed integrals.
	Starting BB first half-transformation.
	Sorting BB half-transformed integrals.
	First half integral transformation complete.
	Starting AA second half-transformation.
	Starting AB second half-transformation.
	Starting BB second half-transformation.
	Two-electron integral transformation complete.
	(OV|OV)...
	Starting AA second half-transformation.
	Starting AB second half-transformation.
	Starting BB second half-transformation.
	Two-electron integral transformation complete.
	(OV|VV)...
	Starting AA second half-transformation.
	Starting AB second half-transformation.
	Starting BB second half-transformation.
	Two-electron integral transformation complete.
	(VV|OO)...
	Starting AA/AB first half-transformation.
	Sorting AA/AB half-transformed integrals.
	Starting BB first half-transformation.
	Sorting BB half-transformed integrals.
	First half integral transformation complete.
	Starting AA second half-transformation.
	Starting AB second half-transformation.
	Starting BB second half-transformation.
	Two-electron integral transformation complete.
	(VV|OV)...
	Starting AA second half-transformation.
	Starting AB second half-transformation.
	Starting BB second half-transformation.
	Two-electron integral transformation complete.
	(VV|VV)...
	Starting AA second half-transformation.
	Starting AB second half-transformation.
	Starting BB second half-transformation.
	Two-electron integral transformation complete.
	Frozen core energy     =   -127.07441449235732

	Size of irrep 0 of <AB|CD> integrals:      5.040 (MW) /     40.320 (MB)
	Size of irrep 1 of <AB|CD> integrals:      3.197 (MW) /     25.576 (MB)
	Size of irrep 2 of <AB|CD> integrals:      3.640 (MW) /     29.124 (MB)
	Size of irrep 3 of <AB|CD> integrals:      4.783 (MW) /     38.264 (MB)
	Total:                                    16.660 (MW) /    133.283 (MB)

	Size of irrep 0 of <ab|cd> integrals:      5.382 (MW) /     43.059 (MB)
	Size of irrep 1 of <ab|cd> integrals:      3.389 (MW) /     27.114 (MB)
	Size of irrep 2 of <ab|cd> integrals:      3.936 (MW) /     31.490 (MB)
	Size of irrep 3 of <ab|cd> integrals:      5.018 (MW) /     40.141 (MB)
	Total:                                    17.726 (MW) /    141.804 (MB)

	Size of irrep 0 of <Ab|Cd> integrals:     22.024 (MW) /    176.194 (MB)
	Size of irrep 1 of <Ab|Cd> integrals:     13.170 (MW) /    105.357 (MB)
	Size of irrep 2 of <Ab|Cd> integrals:     15.140 (MW) /    121.119 (MB)
	Size of irrep 3 of <Ab|Cd> integrals:     19.598 (MW) /    156.787 (MB)
	Total:                                    69.932 (MW) /    559.457 (MB)

	Size of irrep 0 of <IA|BC> integrals:      1.469 (MW) /     11.748 (MB)
	Size of irrep 1 of <IA|BC> integrals:      0.694 (MW) /      5.550 (MB)
	Size of irrep 2 of <IA|BC> integrals:      0.908 (MW) /      7.266 (MB)
	Size of irrep 3 of <IA|BC> integrals:      1.198 (MW) /      9.588 (MB)
	Total:                                     4.269 (MW) /     34.152 (MB)

	Size of irrep 0 of <ia|bc> integrals:      1.178 (MW) /      9.426 (MB)
	Size of irrep 1 of <ia|bc> integrals:      0.527 (MW) /      4.212 (MB)
	Size of irrep 2 of <ia|bc> integrals:      0.663 (MW) /      5.301 (MB)
	Size of irrep 3 of <ia|bc> integrals:      0.999 (MW) /      7.992 (MB)
	Total:                                     3.366 (MW) /     26.931 (MB)

	Size of irrep 0 of <Ia|Bc> integrals:      1.521 (MW) /     12.164 (MB)
	Size of irrep 1 of <Ia|Bc> integrals:      0.711 (MW) /      5.690 (MB)
	Size of irrep 2 of <Ia|Bc> integrals:      0.949 (MW) /      7.595 (MB)
	Size of irrep 3 of <Ia|Bc> integrals:      1.222 (MW) /      9.775 (MB)
	Total:                                     4.403 (MW) /     35.225 (MB)

	Size of irrep 0 of <iA|bC> integrals:      1.140 (MW) /      9.123 (MB)
	Size of irrep 1 of <iA|bC> integrals:      0.512 (MW) /      4.094 (MB)
	Size of irrep 2 of <iA|bC> integrals:      0.634 (MW) /      5.074 (MB)
	Size of irrep 3 of <iA|bC> integrals:      0.978 (MW) /      7.827 (MB)
	Total:                                     3.265 (MW) /     26.118 (MB)

	Size of irrep 0 of tIjAb amplitudes:       0.084 (MW) /      0.676 (MB)
	Size of irrep 1 of tIjAb amplitudes:       0.022 (MW) /      0.174 (MB)
	Size of irrep 2 of tIjAb amplitudes:       0.039 (MW) /      0.311 (MB)
	Size of irrep 3 of tIjAb amplitudes:       0.062 (MW) /      0.496 (MB)
	Total:                                     0.207 (MW) /      1.657 (MB)

	Nuclear Rep. energy          =     26.05539622535422
	SCF energy                   =   -150.86751451370631
	One-electron energy          =    -88.15754198634158
	Two-electron (AA) energy     =     10.77848006224193
	Two-electron (BB) energy     =      5.66122967012954
	Two-electron (AB) energy     =     21.86933600726485
	Two-electron energy          =     38.30904573963632
	Reference energy             =   -150.86751451370836

*** tstop() called on c1-11.compute.lan at Wed Mar 10 09:16:58 2021
Module time:
	user time   =     113.50 seconds =       1.89 minutes
	system time =      18.20 seconds =       0.30 minutes
	total time  =         28 seconds =       0.47 minutes
Total time:
	user time   =     156.21 seconds =       2.60 minutes
	system time =      21.13 seconds =       0.35 minutes
	total time  =         37 seconds =       0.62 minutes
            **************************
            *                        *
            *        CCENERGY        *
            *                        *
            **************************

    Nuclear Rep. energy (wfn)     =   26.055396225354215
    SCF energy          (wfn)     = -150.867514513706311
    Reference energy    (file100) = -150.867514513708358

    Input parameters:
    -----------------
    Wave function   =     CCSD_T
    Reference wfn   =     UHF
    Brueckner       =     No
    Memory (Mbytes) =     4000.0
    Maxiter         =     50
    R_Convergence   =     1.0e-10
    E_Convergence   =     1.0e-10
    Restart         =     Yes
    DIIS            =     Yes
    AO Basis        =     NONE
    ABCD            =     NEW
    Cache Level     =     2
    Cache Type      =     LRU
    Print Level     =     1
    Num. of threads =     12
    # Amps to Print =     10
    Print MP2 Amps? =     No
    Analyze T2 Amps =     No
    Print Pair Ener =     No
    Local CC        =     No
    SCS-MP2         =     False
    SCSN-MP2        =     False
    SCS-CCSD        =     False

MP2 correlation energy -0.4185947187932257
                Solving CC Amplitude Equations
                ------------------------------
  Iter             Energy              RMS        T1Diag      D1Diag    New D1Diag    D2Diag
  ----     ---------------------    ---------   ----------  ----------  ----------   --------
     0        -0.418594718793226    0.000e+00    0.000000    0.000000    0.000000    0.000000
     1        -0.429162092246125    6.048e-02    0.011860    0.000000    0.000000    0.000000
     2        -0.437477420126123    1.832e-02    0.012532    0.000000    0.000000    0.000000
     3        -0.439778370249435    1.182e-02    0.015227    0.000000    0.000000    0.000000
     4        -0.439718886935119    4.374e-03    0.016353    0.000000    0.000000    0.000000
     5        -0.439681039585931    2.995e-03    0.017119    0.000000    0.000000    0.000000
     6        -0.439747016753737    1.166e-03    0.017484    0.000000    0.000000    0.000000
     7        -0.439756705542857    5.483e-04    0.017580    0.000000    0.000000    0.000000
     8        -0.439755885501858    2.020e-04    0.017622    0.000000    0.000000    0.000000
     9        -0.439759184175580    1.067e-04    0.017628    0.000000    0.000000    0.000000
    10        -0.439754195271287    5.587e-05    0.017641    0.000000    0.000000    0.000000
    11        -0.439754683664798    2.616e-05    0.017641    0.000000    0.000000    0.000000
    12        -0.439754502247357    1.029e-05    0.017643    0.000000    0.000000    0.000000
    13        -0.439754661808122    5.302e-06    0.017642    0.000000    0.000000    0.000000
    14        -0.439754852506250    2.167e-06    0.017642    0.000000    0.000000    0.000000
    15        -0.439754858065993    9.814e-07    0.017642    0.000000    0.000000    0.000000
    16        -0.439754861978493    4.296e-07    0.017642    0.000000    0.000000    0.000000
    17        -0.439754863509221    1.456e-07    0.017642    0.000000    0.000000    0.000000
    18        -0.439754861239934    7.387e-08    0.017642    0.000000    0.000000    0.000000

      * MP2 total energy                      = -151.286109232501587
      * CCSD total energy                     = -151.307269374798636
      * CCSD(T) total energy                     = -151.320056584310890
*** Psi4 exiting successfully. Buy a developer a beer!
