                               Psi4 1.3.2 release

  ==> Input File <==

--------------------------------------------------------------------------
memory 4 GB

molecule  {
0 3
O    0.000000000000    0.000000000000   -1.647450061767
H    0.000000000000   -0.754282211900   -1.052773406286
H   -0.000000000000    0.754282211900   -1.052773406286
O    0.000000000000    0.000000000000    1.780118652673
}
set {
basis aug-cc-pvtz
reference uhf
e_convergence 10
scf_type pk
freeze_core true
}

set ccenergy {
e_convergence 10
r_convergence 10
}

e = energy('ccsd(t)')

print_out('Stephenergy {}'.format(e))

--------------------------------------------------------------------------

    Molecular point group: c2v

    Geometry (in Angstrom), charge = 0, multiplicity = 3:

       Center              X                  Y                   Z               Mass
    ------------   -----------------  -----------------  -----------------  -----------------
         O            0.000000000000     0.000000000000    -1.647450061767    15.994914619570
         H            0.000000000000    -0.754282211900    -1.052773406286     1.007825032230
         H           -0.000000000000     0.754282211900    -1.052773406286     1.007825032230
         O            0.000000000000     0.000000000000     1.780118652673    15.994914619570

  Charge       = 0
  Multiplicity = 3
  Basis Set: AUG-CC-PVTZ
    Blend: AUG-CC-PVTZ

    Orbital Energies [Eh]
    ---------------------

    Alpha Occupied:

       1A1   -20.728871     2A1   -20.562776     3A1    -1.437852
       4A1    -1.347462     1B2    -0.729266     1B1    -0.728880
       2B2    -0.709015     5A1    -0.632166     6A1    -0.580119
       2B1    -0.505416

    Alpha Virtual:

       7A1     0.035496     3B2     0.048536     3B1     0.132106
       8A1     0.134751     9A1     0.148062     4B2     0.158032
       4B1     0.181073     5B2     0.184924    10A1     0.189277
      11A1     0.250199     6B2     0.257647     1A2     0.266028
      12A1     0.273404     5B1     0.319832    13A1     0.367651
       7B2     0.382377    14A1     0.454294     8B2     0.471943
       2A2     0.609119     9B2     0.615925    15A1     0.618132
      16A1     0.619512     6B1     0.640448    17A1     0.717697
       3A2     0.730918    10B2     0.735670     7B1     0.741992
      18A1     0.800576    19A1     0.838310     8B1     0.841054
      11B2     0.854195     9B1     0.915184    20A1     0.925307
       4A2     0.934084    12B2     0.941917    21A1     0.958696
      10B1     0.960435    13B2     0.962059    22A1     1.049026
      14B2     1.054554    11B1     1.123038     5A2     1.185823
      23A1     1.186376    15B2     1.254810    24A1     1.262036
      16B2     1.274668    25A1     1.346016     6A2     1.511975
      12B1     1.592814    26A1     1.631201    27A1     1.827535
      17B2     1.829409    18B2     1.973029    13B1     1.978657
      19B2     1.990273    28A1     2.005464     7A2     2.011055
      14B1     2.026100    29A1     2.036354     8A2     2.039626
      20B2     2.081091    30A1     2.086049    15B1     2.119484
      31A1     2.145794    21B2     2.260090    16B1     2.278814
       9A2     2.329597    32A1     2.336511    33A1     2.402370
      34A1     2.488108    22B2     2.491718    17B1     2.505080
      35A1     2.575038    23B2     2.688856    18B1     2.718474
      36A1     2.820516    10A2     2.889355    24B2     2.902485
      25B2     3.668410    37A1     3.755531    11A2     4.031388
      19B1     4.050751    26B2     4.084385    20B1     4.102668
      38A1     4.148910    27B2     4.278543    21B1     4.285532
      39A1     4.367735    12A2     4.383701    40A1     4.406150
      22B1     4.417268    28B2     4.530379    41A1     4.749845
      29B2     4.854941    13A2     5.153136    30B2     5.164704
      31B2     5.254917    42A1     5.373565    23B1     5.530744
      43A1     5.678321    44A1     6.200248    24B1     6.315230
      32B2     6.316057    14A2     6.370008    45A1     6.375196
      25B1     6.402022    33B2     6.449897    46A1     6.479701
      34B2     6.528171    26B1     6.737492    15A2     6.819174
      47A1     6.820608    27B1     6.927242    48A1     6.930964
      35B2     6.956758    49A1     7.033045    28B1     7.137153
      29B1     7.261500    16A2     7.320255    36B2     7.347807
      50A1     7.356781    17A2     7.358926    51A1     7.550928
      52A1     7.903191    37B2     7.939733    53A1     8.528972
      38B2     8.817748    54A1    15.763164

    Beta Occupied:

       1A1   -20.650306     2A1   -20.562814     3A1    -1.347634
       4A1    -1.095552     1B2    -0.709157     5A1    -0.584187
       6A1    -0.538469     1B1    -0.505407

    Beta Virtual:

       2B2     0.035429     7A1     0.036612     2B1     0.049955
       3B2     0.069586     8A1     0.140914     9A1     0.150642
       3B1     0.160358     4B2     0.180854    10A1     0.189596
       5B2     0.221930     4B1     0.225325    11A1     0.259186
       6B2     0.263213     1A2     0.266340    12A1     0.274856
       5B1     0.320472    13A1     0.371034     7B2     0.387415
      14A1     0.455418     8B2     0.472462     9B2     0.618377
      15A1     0.620508     2A2     0.641348    16A1     0.651300
       6B1     0.652549    17A1     0.719039     3A2     0.732349
       7B1     0.743983    10B2     0.747078    18A1     0.809045
      19A1     0.851411     8B1     0.912187     9B1     0.930445
      20A1     0.930659     4A2     0.935474    11B2     0.940310
      12B2     0.944488    21A1     0.959621    13B2     1.009776
      10B1     1.024928    22A1     1.049601    14B2     1.057218
      11B1     1.128026     5A2     1.186522    23A1     1.190474
      15B2     1.268368    16B2     1.277835    24A1     1.280599
      25A1     1.403888     6A2     1.512080    12B1     1.592914
      26A1     1.643678    27A1     1.828646    17B2     1.830636
      18B2     1.980793    13B1     2.016757    19B2     2.021469
      28A1     2.030771     7A2     2.041390    14B1     2.046289
      29A1     2.099924    20B2     2.124812    30A1     2.155337
       8A2     2.182398    15B1     2.188829    31A1     2.195162
      16B1     2.283034    21B2     2.306137     9A2     2.332518
      32A1     2.357221    33A1     2.413387    34A1     2.492301
      22B2     2.496330    17B1     2.509729    35A1     2.578053
      23B2     2.689020    18B1     2.718562    36A1     2.820821
      10A2     2.889377    24B2     2.904503    25B2     3.668444
      37A1     3.755671    11A2     4.031474    19B1     4.102054
      38A1     4.163802    20B1     4.223527    26B2     4.241215
      21B1     4.285554    27B2     4.291941    12A2     4.383748
      39A1     4.392420    40A1     4.414090    22B1     4.417449
      28B2     4.530579    41A1     4.749985    29B2     4.855029
      13A2     5.153153    30B2     5.164710    31B2     5.254939
      42A1     5.374013    23B1     5.530749    43A1     5.678652
      44A1     6.201918    24B1     6.424079    32B2     6.424764
      14A2     6.446669    45A1     6.450257    25B1     6.457332
      33B2     6.494786    46A1     6.528529    34B2     6.539925
      26B1     6.743869    47A1     6.930989    15A2     7.008200
      48A1     7.010011    27B1     7.034677    35B2     7.065876
      49A1     7.114017    28B1     7.137433    29B1     7.261457
      16A2     7.320301    36B2     7.349814    50A1     7.357451
      17A2     7.358980    51A1     7.551626    52A1     7.903422
      37B2     7.939717    53A1     8.614114    38B2     8.817688
      54A1    15.763159

    Final Occupation by Irrep:
             A1    A2    B1    B2
    DOCC [     6,    0,    1,    1 ]
    SOCC [     0,    0,    1,    1 ]

  @UHF Final Energy:  -150.87369147099182

   => Energetics <=

    Nuclear Repulsion Energy =             21.9347092873063865
    One-Electron Energy =                -251.6614530195438988
    Two-Electron Energy =                  78.8530522612456934
    Total Energy =                       -150.8736914709918153

  UHF NO Occupations:
  HONO-2 :    6 A1 1.9970744
  HONO-1 :    2 B2 1.0000000
  HONO-0 :    2 B1 1.0000000
  LUNO+0 :    7 A1 0.0029256
  LUNO+1 :    8 A1 0.0016872
  LUNO+2 :    9 A1 0.0000024
  LUNO+3 :   10 A1 0.0000004

Computation Completed

Properties will be evaluated at   0.000000,   0.000000,   0.000000 [a0]

Properties computed using the SCF density matrix

  Nuclear Dipole Moment: [e a0]
     X:     0.0000      Y:     0.0000      Z:    -1.9732

  Electronic Dipole Moment: [e a0]
     X:     0.0000      Y:     0.0000      Z:     2.8048

  Dipole Moment: [e a0]
     X:     0.0000      Y:     0.0000      Z:     0.8316     Total:     0.8316

  Dipole Moment: [D]
     X:     0.0000      Y:     0.0000      Z:     2.1137     Total:     2.1137

*** tstop() called on c4-2.compute.lan at Wed Mar 10 09:54:40 2021
Module time:
	user time   =      48.78 seconds =       0.81 minutes
	system time =       1.99 seconds =       0.03 minutes
	total time  =          7 seconds =       0.12 minutes
Total time:
	user time   =      48.78 seconds =       0.81 minutes
	system time =       1.99 seconds =       0.03 minutes
	total time  =          7 seconds =       0.12 minutes
 MINTS: Wrapper to libmints.
   by Justin Turney

   Calculation information:
      Number of threads:                12
      Number of atoms:                   4
      Number of AO shells:              46
      Number of SO shells:              37
      Number of primitives:             82
      Number of atomic orbitals:       160
      Number of basis functions:       138

      Number of irreps:                  4
      Integral cutoff                 0.00e+00
      Number of functions per irrep: [  54   17   29   38 ]

 OEINTS: Overlap, kinetic, potential, dipole, and quadrupole integrals
         stored in file 35.

      Computing two-electron integrals...done
      Computed 11535120 non-zero two-electron integrals.
        Stored in file 33.

*** tstart() called on c4-2.compute.lan
*** at Wed Mar 10 09:54:42 2021

	Wfn Parameters:
	--------------------
	Wavefunction         = CCSD_T
	Number of irreps     = 4
	Number of MOs        = 138
	Number of active MOs = 136
	AO-Basis             = NONE
	Semicanonical        = false
	Reference            = UHF
	Print Level          = 1

	IRREP	# MOs	# FZDC	# DOCC	# SOCC	# VIRT	# FZVR
	-----	-----	------	------	------	------	------
	 A1	   54	    2	    4	    0	    48	    0
	 A2	   17	    0	    0	    0	    17	    0
	 B1	   29	    0	    1	    1	    27	    0
	 B2	   38	    0	    1	    1	    36	    0
	Transforming integrals...
	IWL integrals will be deleted.
	(OO|OO)...
	Presorting SO-basis two-electron integrals.
	Sorting File: SO Ints (nn|nn) nbuckets = 1
	Transforming the one-electron integrals and constructing Fock matrices
	Starting AA/AB first half-transformation.
	Sorting AA/AB half-transformed integrals.
	Starting BB first half-transformation.
	Sorting BB half-transformed integrals.
	First half integral transformation complete.
	Starting AA second half-transformation.
	Starting AB second half-transformation.
	Starting BB second half-transformation.
	Two-electron integral transformation complete.
	(OO|OV)...
	Starting AA second half-transformation.
	Starting AB second half-transformation.
	Starting BB second half-transformation.
	Two-electron integral transformation complete.
	(OO|VV)...
	Starting AA second half-transformation.
	Starting AB second half-transformation.
	Starting BB second half-transformation.
	Two-electron integral transformation complete.
	(OV|OO)...
	Starting AA/AB first half-transformation.
	Sorting AA/AB half-transformed integrals.
	Starting BB first half-transformation.
	Sorting BB half-transformed integrals.
	First half integral transformation complete.
	Starting AA second half-transformation.
	Starting AB second half-transformation.
	Starting BB second half-transformation.
	Two-electron integral transformation complete.
	(OV|OV)...
	Starting AA second half-transformation.
	Starting AB second half-transformation.
	Starting BB second half-transformation.
	Two-electron integral transformation complete.
	(OV|VV)...
	Starting AA second half-transformation.
	Starting AB second half-transformation.
	Starting BB second half-transformation.
	Two-electron integral transformation complete.
	(VV|OO)...
	Starting AA/AB first half-transformation.
	Sorting AA/AB half-transformed integrals.
	Starting BB first half-transformation.
	Sorting BB half-transformed integrals.
	First half integral transformation complete.
	Starting AA second half-transformation.
	Starting AB second half-transformation.
	Starting BB second half-transformation.
	Two-electron integral transformation complete.
	(VV|OV)...
	Starting AA second half-transformation.
	Starting AB second half-transformation.
	Starting BB second half-transformation.
	Two-electron integral transformation complete.
	(VV|VV)...
	Starting AA second half-transformation.
	Starting AB second half-transformation.
	Starting BB second half-transformation.
	Two-electron integral transformation complete.
	Frozen core energy     =   -125.45964874005112

	Size of irrep 0 of <AB|CD> integrals:      5.040 (MW) /     40.320 (MB)
	Size of irrep 1 of <AB|CD> integrals:      3.197 (MW) /     25.576 (MB)
	Size of irrep 2 of <AB|CD> integrals:      3.640 (MW) /     29.124 (MB)
	Size of irrep 3 of <AB|CD> integrals:      4.783 (MW) /     38.264 (MB)
	Total:                                    16.660 (MW) /    133.283 (MB)

	Size of irrep 0 of <ab|cd> integrals:      5.327 (MW) /     42.615 (MB)
	Size of irrep 1 of <ab|cd> integrals:      3.430 (MW) /     27.439 (MB)
	Size of irrep 2 of <ab|cd> integrals:      3.893 (MW) /     31.142 (MB)
	Size of irrep 3 of <ab|cd> integrals:      5.072 (MW) /     40.572 (MB)
	Total:                                    17.721 (MW) /    141.768 (MB)

	Size of irrep 0 of <Ab|Cd> integrals:     21.912 (MW) /    175.294 (MB)
	Size of irrep 1 of <Ab|Cd> integrals:     13.242 (MW) /    105.939 (MB)
	Size of irrep 2 of <Ab|Cd> integrals:     15.062 (MW) /    120.497 (MB)
	Size of irrep 3 of <Ab|Cd> integrals:     19.705 (MW) /    157.638 (MB)
	Total:                                    69.921 (MW) /    559.368 (MB)

	Size of irrep 0 of <IA|BC> integrals:      1.469 (MW) /     11.748 (MB)
	Size of irrep 1 of <IA|BC> integrals:      0.694 (MW) /      5.550 (MB)
	Size of irrep 2 of <IA|BC> integrals:      0.908 (MW) /      7.266 (MB)
	Size of irrep 3 of <IA|BC> integrals:      1.198 (MW) /      9.588 (MB)
	Total:                                     4.269 (MW) /     34.152 (MB)

	Size of irrep 0 of <ia|bc> integrals:      1.220 (MW) /      9.758 (MB)
	Size of irrep 1 of <ia|bc> integrals:      0.493 (MW) /      3.941 (MB)
	Size of irrep 2 of <ia|bc> integrals:      0.698 (MW) /      5.588 (MB)
	Size of irrep 3 of <ia|bc> integrals:      0.959 (MW) /      7.675 (MB)
	Total:                                     3.370 (MW) /     26.961 (MB)

	Size of irrep 0 of <Ia|Bc> integrals:      1.507 (MW) /     12.058 (MB)
	Size of irrep 1 of <Ia|Bc> integrals:      0.721 (MW) /      5.764 (MB)
	Size of irrep 2 of <Ia|Bc> integrals:      0.939 (MW) /      7.514 (MB)
	Size of irrep 3 of <Ia|Bc> integrals:      1.234 (MW) /      9.872 (MB)
	Total:                                     4.401 (MW) /     35.208 (MB)

	Size of irrep 0 of <iA|bC> integrals:      1.194 (MW) /      9.549 (MB)
	Size of irrep 1 of <iA|bC> integrals:      0.477 (MW) /      3.814 (MB)
	Size of irrep 2 of <iA|bC> integrals:      0.671 (MW) /      5.371 (MB)
	Size of irrep 3 of <iA|bC> integrals:      0.928 (MW) /      7.422 (MB)
	Total:                                     3.270 (MW) /     26.156 (MB)

	Size of irrep 0 of tIjAb amplitudes:       0.094 (MW) /      0.749 (MB)
	Size of irrep 1 of tIjAb amplitudes:       0.015 (MW) /      0.116 (MB)
	Size of irrep 2 of tIjAb amplitudes:       0.047 (MW) /      0.373 (MB)
	Size of irrep 3 of tIjAb amplitudes:       0.053 (MW) /      0.426 (MB)
	Total:                                     0.208 (MW) /      1.664 (MB)

	Nuclear Rep. energy          =     21.93470928730639
	SCF energy                   =   -150.87369147099182
	One-electron energy          =    -83.24692259325219
	Two-electron (AA) energy     =      9.94561934739295
	Two-electron (BB) energy     =      5.29311903480575
	Two-electron (AB) energy     =     20.65943219280420
	Two-electron energy          =     35.89817057500290
	Reference energy             =   -150.87369147099403

*** tstop() called on c4-2.compute.lan at Wed Mar 10 09:55:05 2021
Module time:
	user time   =      61.54 seconds =       1.03 minutes
	system time =      12.25 seconds =       0.20 minutes
	total time  =         23 seconds =       0.38 minutes
Total time:
	user time   =     115.00 seconds =       1.92 minutes
	system time =      14.56 seconds =       0.24 minutes
	total time  =         32 seconds =       0.53 minutes
            **************************
            *                        *
            *        CCENERGY        *
            *                        *
            **************************

    Nuclear Rep. energy (wfn)     =   21.934709287306386
    SCF energy          (wfn)     = -150.873691470991815
    Reference energy    (file100) = -150.873691470994032

    Input parameters:
    -----------------
    Wave function   =     CCSD_T
    Reference wfn   =     UHF
    Brueckner       =     No
    Memory (Mbytes) =     4000.0
    Maxiter         =     50
    R_Convergence   =     1.0e-10
    E_Convergence   =     1.0e-10
    Restart         =     Yes
    DIIS            =     Yes
    AO Basis        =     NONE
    ABCD            =     NEW
    Cache Level     =     2
    Cache Type      =     LRU
    Print Level     =     1
    Num. of threads =     12
    # Amps to Print =     10
    Print MP2 Amps? =     No
    Analyze T2 Amps =     No
    Print Pair Ener =     No
    Local CC        =     No
    SCS-MP2         =     False
    SCSN-MP2        =     False
    SCS-CCSD        =     False

MP2 correlation energy -0.4156242780187523
                Solving CC Amplitude Equations
                ------------------------------
  Iter             Energy              RMS        T1Diag      D1Diag    New D1Diag    D2Diag
  ----     ---------------------    ---------   ----------  ----------  ----------   --------
     0        -0.415624278018752    0.000e+00    0.000000    0.000000    0.000000    0.000000
     1        -0.426507368183390    5.632e-02    0.010348    0.000000    0.000000    0.000000
     2        -0.434585689682611    1.676e-02    0.010851    0.000000    0.000000    0.000000
     3        -0.436679788757909    8.394e-03    0.012663    0.000000    0.000000    0.000000
     4        -0.436555924389961    2.490e-03    0.013006    0.000000    0.000000    0.000000
     5        -0.436543955897590    1.257e-03    0.013148    0.000000    0.000000    0.000000
     6        -0.436569425377596    4.978e-04    0.013161    0.000000    0.000000    0.000000
     7        -0.436573539199647    2.239e-04    0.013151    0.000000    0.000000    0.000000
     8        -0.436574284064289    6.809e-05    0.013145    0.000000    0.000000    0.000000
     9        -0.436575495505776    2.775e-05    0.013145    0.000000    0.000000    0.000000
    10        -0.436574327786362    1.048e-05    0.013145    0.000000    0.000000    0.000000
    11        -0.436574437453778    5.154e-06    0.013145    0.000000    0.000000    0.000000
    12        -0.436574398586384    2.504e-06    0.013145    0.000000    0.000000    0.000000
    13        -0.436574391712880    1.343e-06    0.013145    0.000000    0.000000    0.000000
    14        -0.436574418217522    6.328e-07    0.013145    0.000000    0.000000    0.000000
    15        -0.436574416843156    1.718e-07    0.013145    0.000000    0.000000    0.000000
    16        -0.436574416704207    1.048e-07    0.013145    0.000000    0.000000    0.000000
    17        -0.436574417491469    2.968e-08    0.013145    0.000000    0.000000    0.000000
    18        -0.436574417070110    1.370e-08    0.013145    0.000000    0.000000    0.000000

      * MP2 total energy                      = -151.289315749012786
      * CCSD total energy                     = -151.310265887788972
      * CCSD(T) total energy                     = -151.322472035954092
*** Psi4 exiting successfully. Buy a developer a beer!
