                               Psi4 1.3.2 release

  ==> Input File <==

--------------------------------------------------------------------------
memory 4 GB

molecule  {
0 3
O   -1.504118848000   -0.001213898200    0.000000000000
H   -0.554213804300    0.156583097100    0.000000000000
H   -1.894403675000    0.877184048100    0.000000000000
O    1.658404009800   -0.063922830000    0.000000000000
}
set {
basis aug-cc-pvtz
reference uhf
e_convergence 10
scf_type pk
freeze_core true
}

set ccenergy {
e_convergence 10
r_convergence 10
}

e = energy('ccsd(t)')

print_out('Stephenergy {}'.format(e))

--------------------------------------------------------------------------

    Molecular point group: cs

    Geometry (in Angstrom), charge = 0, multiplicity = 3:

       Center              X                  Y                   Z               Mass
    ------------   -----------------  -----------------  -----------------  -----------------
         O           -1.504118848002    -0.001213898208     0.000000000000    15.994914619570
         H           -0.554213804302     0.156583097092     0.000000000000     1.007825032230
         H           -1.894403675002     0.877184048092     0.000000000000     1.007825032230
         O            1.658404009798    -0.063922830008     0.000000000000    15.994914619570

  Charge       = 0
  Multiplicity = 3
  Basis Set: AUG-CC-PVTZ
    Blend: AUG-CC-PVTZ

    Orbital Energies [Eh]
    ---------------------

    Alpha Occupied:

       1Ap   -20.733050     2Ap   -20.558746     3Ap    -1.442381
       4Ap    -1.342947     5Ap    -0.733158     1App   -0.732776
       6Ap    -0.710286     7Ap    -0.634445     8Ap    -0.574943
       2App   -0.501902

    Alpha Virtual:

       9Ap     0.034209    10Ap     0.053479    11Ap     0.128184
       3App    0.132934    12Ap     0.148139    13Ap     0.160776
      14Ap     0.183935     4App    0.186818    15Ap     0.214131
      16Ap     0.241995    17Ap     0.264332     5App    0.286460
      18Ap     0.303945     6App    0.320648    19Ap     0.364360
      20Ap     0.406369    21Ap     0.460523    22Ap     0.568606
       7App    0.602637    23Ap     0.608709    24Ap     0.627098
      25Ap     0.681981     8App    0.709506    26Ap     0.714723
       9App    0.736680    10App    0.748725    27Ap     0.750734
      28Ap     0.811666    11App    0.826043    29Ap     0.837085
      12App    0.890920    30Ap     0.892051    31Ap     0.922834
      32Ap     0.945176    13App    0.947642    33Ap     0.951368
      14App    0.971754    34Ap     0.978769    35Ap     1.043352
      36Ap     1.135875    15App    1.153746    37Ap     1.169945
      38Ap     1.185166    39Ap     1.260969    16App    1.295121
      40Ap     1.316480    17App    1.527400    41Ap     1.587186
      18App    1.598076    42Ap     1.715918    43Ap     1.809641
      44Ap     1.842711    45Ap     1.977545    19App    1.977745
      46Ap     1.978610    20App    2.013238    47Ap     2.018037
      21App    2.048495    48Ap     2.061037    22App    2.122642
      49Ap     2.152904    50Ap     2.175945    23App    2.212698
      24App    2.302927    51Ap     2.310789    52Ap     2.338949
      53Ap     2.414877    25App    2.441402    54Ap     2.459028
      55Ap     2.490689    26App    2.526739    56Ap     2.629609
      57Ap     2.709655    27App    2.727456    58Ap     2.735903
      59Ap     2.860636    60Ap     2.932949    28App    2.943426
      61Ap     3.696259    62Ap     3.891519    29App    4.036023
      30App    4.062993    63Ap     4.074273    31App    4.177922
      64Ap     4.208995    65Ap     4.265099    32App    4.302401
      33App    4.391156    66Ap     4.408008    34App    4.429851
      67Ap     4.445526    68Ap     4.602406    69Ap     4.779139
      70Ap     4.958307    35App    5.155754    71Ap     5.171369
      72Ap     5.298562    73Ap     5.390236    36App    5.525604
      74Ap     5.691256    75Ap     6.188735    37App    6.312383
      76Ap     6.312415    38App    6.375529    77Ap     6.378229
      39App    6.518232    78Ap     6.519748    79Ap     6.559449
      80Ap     6.637196    40App    6.735853    81Ap     6.814481
      41App    6.820057    82Ap     6.921410    42App    6.936874
      83Ap     6.961483    84Ap     7.050966    43App    7.148441
      44App    7.272097    45App    7.325731    85Ap     7.326243
      86Ap     7.363787    46App    7.435158    87Ap     7.647299
      88Ap     7.945745    89Ap     7.961151    90Ap     8.810402
      91Ap     9.516582    92Ap    16.304361

    Beta Occupied:

       1Ap   -20.654265     2Ap   -20.558875     3Ap    -1.343520
       4Ap    -1.099915     5Ap    -0.709496     6Ap    -0.579924
       7Ap    -0.541200     1App   -0.501946

    Beta Virtual:

       8Ap     0.034366     2App    0.049379     9Ap     0.049627
      10Ap     0.055182    11Ap     0.143823    12Ap     0.152973
       3App    0.161226    13Ap     0.178073    14Ap     0.207812
      15Ap     0.225505     4App    0.227205    16Ap     0.250716
      17Ap     0.265581     5App    0.286668    18Ap     0.306081
       6App    0.324388    19Ap     0.368258    20Ap     0.417273
      21Ap     0.461793    22Ap     0.572183    23Ap     0.627846
       7App    0.635032    24Ap     0.640462    25Ap     0.686782
      26Ap     0.715386     8App    0.721570     9App    0.739839
      10App    0.750411    27Ap     0.767234    28Ap     0.818040
      29Ap     0.868093    11App    0.869090    30Ap     0.920013
      12App    0.941815    31Ap     0.941877    13App    0.949757
      32Ap     0.952739    33Ap     0.970102    34Ap     1.017686
      14App    1.020207    35Ap     1.045578    15App    1.156893
      36Ap     1.163791    37Ap     1.173224    38Ap     1.216225
      39Ap     1.264120    16App    1.305718    40Ap     1.325192
      17App    1.528116    41Ap     1.589421    18App    1.599512
      42Ap     1.742151    43Ap     1.815072    44Ap     1.853459
      45Ap     1.986467    46Ap     2.015707    19App    2.015718
      20App    2.053811    47Ap     2.065740    21App    2.170812
      48Ap     2.176144    22App    2.179631    49Ap     2.193926
      50Ap     2.244703    23App    2.249935    24App    2.306336
      51Ap     2.316276    52Ap     2.361630    53Ap     2.419323
      25App    2.444114    54Ap     2.459832    55Ap     2.496997
      26App    2.535189    56Ap     2.636780    57Ap     2.726659
      27App    2.728774    58Ap     2.739352    59Ap     2.862464
      60Ap     2.937380    28App    2.944053    61Ap     3.696945
      62Ap     3.893878    29App    4.038996    30App    4.146584
      63Ap     4.193867    64Ap     4.243748    31App    4.262655
      65Ap     4.276365    32App    4.302458    33App    4.391226
      66Ap     4.411605    34App    4.430517    67Ap     4.489968
      68Ap     4.604930    69Ap     4.780797    70Ap     4.960290
      35App    5.155741    71Ap     5.171665    72Ap     5.298802
      73Ap     5.391456    36App    5.525664    74Ap     5.691603
      75Ap     6.189989    76Ap     6.421234    37App    6.421239
      38App    6.450722    77Ap     6.453441    78Ap     6.534730
      39App    6.572106    79Ap     6.600353    80Ap     6.682128
      40App    6.741799    81Ap     6.923396    41App    7.005147
      82Ap     7.006785    42App    7.046084    83Ap     7.068297
      84Ap     7.130718    43App    7.150978    44App    7.272346
      45App    7.326438    85Ap     7.326556    86Ap     7.364566
      46App    7.435568    87Ap     7.648141    88Ap     7.946692
      89Ap     7.961568    90Ap     8.811948    91Ap     9.591589
      92Ap    16.304630

    Final Occupation by Irrep:
             Ap   App
    DOCC [     7,    1 ]
    SOCC [     1,    1 ]

  @UHF Final Energy:  -150.87446924574886

   => Energetics <=

    Nuclear Repulsion Energy =             22.9110794563681388
    One-Electron Energy =                -253.6173222094222979
    Two-Electron Energy =                  79.8317735073053001
    Total Energy =                       -150.8744692457488554

  UHF NO Occupations:
  HONO-2 :    7 Ap 1.9970282
  HONO-1 :    2App 1.0000000
  HONO-0 :    8 Ap 1.0000000
  LUNO+0 :    9 Ap 0.0029718
  LUNO+1 :   10 Ap 0.0017159
  LUNO+2 :   11 Ap 0.0000024
  LUNO+3 :   12 Ap 0.0000017

Computation Completed

Properties will be evaluated at   0.000000,   0.000000,   0.000000 [a0]

Properties computed using the SCF density matrix

  Nuclear Dipole Moment: [e a0]
     X:    -2.2948      Y:     0.9688      Z:     0.0000

  Electronic Dipole Moment: [e a0]
     X:     2.7573      Y:    -0.2937      Z:     0.0000

  Dipole Moment: [e a0]
     X:     0.4625      Y:     0.6751      Z:     0.0000     Total:     0.8183

  Dipole Moment: [D]
     X:     1.1756      Y:     1.7159      Z:     0.0000     Total:     2.0800

*** tstop() called on c1-9.compute.lan at Tue Mar  9 15:35:39 2021
Module time:
	user time   =      65.88 seconds =       1.10 minutes
	system time =       3.67 seconds =       0.06 minutes
	total time  =          8 seconds =       0.13 minutes
Total time:
	user time   =      65.88 seconds =       1.10 minutes
	system time =       3.67 seconds =       0.06 minutes
	total time  =          8 seconds =       0.13 minutes
 MINTS: Wrapper to libmints.
   by Justin Turney

   Calculation information:
      Number of threads:                12
      Number of atoms:                   4
      Number of AO shells:              46
      Number of SO shells:              46
      Number of primitives:             82
      Number of atomic orbitals:       160
      Number of basis functions:       138

      Number of irreps:                  2
      Integral cutoff                 0.00e+00
      Number of functions per irrep: [  92   46 ]

 OEINTS: Overlap, kinetic, potential, dipole, and quadrupole integrals
         stored in file 35.

      Computing two-electron integrals...done
      Computed 22935791 non-zero two-electron integrals.
        Stored in file 33.

*** tstart() called on c1-9.compute.lan
*** at Tue Mar  9 15:35:42 2021

	Wfn Parameters:
	--------------------
	Wavefunction         = CCSD_T
	Number of irreps     = 2
	Number of MOs        = 138
	Number of active MOs = 136
	AO-Basis             = NONE
	Semicanonical        = false
	Reference            = UHF
	Print Level          = 1

	IRREP	# MOs	# FZDC	# DOCC	# SOCC	# VIRT	# FZVR
	-----	-----	------	------	------	------	------
	 Ap	   92	    2	    5	    1	    84	    0
	 App	   46	    0	    1	    1	    44	    0
	Transforming integrals...
	IWL integrals will be deleted.
	(OO|OO)...
	Presorting SO-basis two-electron integrals.
	Sorting File: SO Ints (nn|nn) nbuckets = 1
	Transforming the one-electron integrals and constructing Fock matrices
	Starting AA/AB first half-transformation.
	Sorting AA/AB half-transformed integrals.
	Starting BB first half-transformation.
	Sorting BB half-transformed integrals.
	First half integral transformation complete.
	Starting AA second half-transformation.
	Starting AB second half-transformation.
	Starting BB second half-transformation.
	Two-electron integral transformation complete.
	(OO|OV)...
	Starting AA second half-transformation.
	Starting AB second half-transformation.
	Starting BB second half-transformation.
	Two-electron integral transformation complete.
	(OO|VV)...
	Starting AA second half-transformation.
	Starting AB second half-transformation.
	Starting BB second half-transformation.
	Two-electron integral transformation complete.
	(OV|OO)...
	Starting AA/AB first half-transformation.
	Sorting AA/AB half-transformed integrals.
	Starting BB first half-transformation.
	Sorting BB half-transformed integrals.
	First half integral transformation complete.
	Starting AA second half-transformation.
	Starting AB second half-transformation.
	Starting BB second half-transformation.
	Two-electron integral transformation complete.
	(OV|OV)...
	Starting AA second half-transformation.
	Starting AB second half-transformation.
	Starting BB second half-transformation.
	Two-electron integral transformation complete.
	(OV|VV)...
	Starting AA second half-transformation.
	Starting AB second half-transformation.
	Starting BB second half-transformation.
	Two-electron integral transformation complete.
	(VV|OO)...
	Starting AA/AB first half-transformation.
	Sorting AA/AB half-transformed integrals.
	Starting BB first half-transformation.
	Sorting BB half-transformed integrals.
	First half integral transformation complete.
	Starting AA second half-transformation.
	Starting AB second half-transformation.
	Starting BB second half-transformation.
	Two-electron integral transformation complete.
	(VV|OV)...
	Starting AA second half-transformation.
	Starting AB second half-transformation.
	Starting BB second half-transformation.
	Two-electron integral transformation complete.
	(VV|VV)...
	Starting AA second half-transformation.
	Starting AB second half-transformation.
	Starting BB second half-transformation.
	Two-electron integral transformation complete.
	Frozen core energy     =   -125.85931914247622

	Size of irrep 0 of <AB|CD> integrals:     19.643 (MW) /    157.141 (MB)
	Size of irrep 1 of <AB|CD> integrals:     13.660 (MW) /    109.283 (MB)
	Total:                                    33.303 (MW) /    266.424 (MB)

	Size of irrep 0 of <ab|cd> integrals:     20.794 (MW) /    166.349 (MB)
	Size of irrep 1 of <ab|cd> integrals:     14.631 (MW) /    117.045 (MB)
	Total:                                    35.424 (MW) /    283.394 (MB)

	Size of irrep 0 of <Ab|Cd> integrals:     83.174 (MW) /    665.395 (MB)
	Size of irrep 1 of <Ab|Cd> integrals:     56.550 (MW) /    452.403 (MB)
	Total:                                   139.725 (MW) /   1117.798 (MB)

	Size of irrep 0 of <IA|BC> integrals:      5.323 (MW) /     42.586 (MB)
	Size of irrep 1 of <IA|BC> integrals:      3.193 (MW) /     25.547 (MB)
	Total:                                     8.517 (MW) /     68.133 (MB)

	Size of irrep 0 of <ia|bc> integrals:      4.348 (MW) /     34.780 (MB)
	Size of irrep 1 of <ia|bc> integrals:      2.372 (MW) /     18.972 (MB)
	Total:                                     6.719 (MW) /     53.752 (MB)

	Size of irrep 0 of <Ia|Bc> integrals:      5.472 (MW) /     43.776 (MB)
	Size of irrep 1 of <Ia|Bc> integrals:      3.309 (MW) /     26.470 (MB)
	Total:                                     8.781 (MW) /     70.246 (MB)

	Size of irrep 0 of <iA|bC> integrals:      4.232 (MW) /     33.853 (MB)
	Size of irrep 1 of <iA|bC> integrals:      2.286 (MW) /     18.289 (MB)
	Total:                                     6.518 (MW) /     52.142 (MB)

	Size of irrep 0 of tIjAb amplitudes:       0.292 (MW) /      2.335 (MB)
	Size of irrep 1 of tIjAb amplitudes:       0.120 (MW) /      0.963 (MB)
	Total:                                     0.412 (MW) /      3.297 (MB)

	Nuclear Rep. energy          =     22.91107945636814
	SCF energy                   =   -150.87446924574886
	One-electron energy          =    -84.40361878209004
	Two-electron (AA) energy     =     10.13697178819001
	Two-electron (BB) energy     =      5.39247195063487
	Two-electron (AB) energy     =     20.94794548362354
	Two-electron energy          =     36.47738922244842
	Reference energy             =   -150.87446924574971

*** tstop() called on c1-9.compute.lan at Tue Mar  9 15:36:40 2021
Module time:
	user time   =     149.83 seconds =       2.50 minutes
	system time =      38.93 seconds =       0.65 minutes
	total time  =         58 seconds =       0.97 minutes
Total time:
	user time   =     222.24 seconds =       3.70 minutes
	system time =      43.44 seconds =       0.72 minutes
	total time  =         69 seconds =       1.15 minutes
            **************************
            *                        *
            *        CCENERGY        *
            *                        *
            **************************

    Nuclear Rep. energy (wfn)     =   22.911079456368139
    SCF energy          (wfn)     = -150.874469245748855
    Reference energy    (file100) = -150.874469245749708

    Input parameters:
    -----------------
    Wave function   =     CCSD_T
    Reference wfn   =     UHF
    Brueckner       =     No
    Memory (Mbytes) =     4000.0
    Maxiter         =     50
    R_Convergence   =     1.0e-10
    E_Convergence   =     1.0e-10
    Restart         =     Yes
    DIIS            =     Yes
    AO Basis        =     NONE
    ABCD            =     NEW
    Cache Level     =     2
    Cache Type      =     LRU
    Print Level     =     1
    Num. of threads =     12
    # Amps to Print =     10
    Print MP2 Amps? =     No
    Analyze T2 Amps =     No
    Print Pair Ener =     No
    Local CC        =     No
    SCS-MP2         =     False
    SCSN-MP2        =     False
    SCS-CCSD        =     False

MP2 correlation energy -0.4166169222000678
                Solving CC Amplitude Equations
                ------------------------------
  Iter             Energy              RMS        T1Diag      D1Diag    New D1Diag    D2Diag
  ----     ---------------------    ---------   ----------  ----------  ----------   --------
     0        -0.416616922200068    0.000e+00    0.000000    0.000000    0.000000    0.000000
     1        -0.427334589375216    5.689e-02    0.010554    0.000000    0.000000    0.000000
     2        -0.435423678767065    1.690e-02    0.011033    0.000000    0.000000    0.000000
     3        -0.437545770437447    8.576e-03    0.012904    0.000000    0.000000    0.000000
     4        -0.437419921573769    2.535e-03    0.013271    0.000000    0.000000    0.000000
     5        -0.437405459700154    1.321e-03    0.013428    0.000000    0.000000    0.000000
     6        -0.437432694973672    5.149e-04    0.013450    0.000000    0.000000    0.000000
     7        -0.437437325508672    2.647e-04    0.013444    0.000000    0.000000    0.000000
     8        -0.437437926492666    9.959e-05    0.013440    0.000000    0.000000    0.000000
     9        -0.437439298504093    7.431e-05    0.013441    0.000000    0.000000    0.000000
    10        -0.437437739210673    6.418e-05    0.013442    0.000000    0.000000    0.000000
    11        -0.437437885984504    6.133e-05    0.013443    0.000000    0.000000    0.000000
    12        -0.437437597319138    5.964e-05    0.013446    0.000000    0.000000    0.000000
    13        -0.437437589767871    5.850e-05    0.013449    0.000000    0.000000    0.000000
    14        -0.437438765720407    5.662e-05    0.013467    0.000000    0.000000    0.000000
    15        -0.437439144429625    5.008e-05    0.013540    0.000000    0.000000    0.000000
    16        -0.437438920388450    3.348e-05    0.013680    0.000000    0.000000    0.000000
    17        -0.437438574226023    1.616e-05    0.013748    0.000000    0.000000    0.000000
    18        -0.437438444347903    7.581e-06    0.013766    0.000000    0.000000    0.000000
    19        -0.437438703552020    3.351e-06    0.013770    0.000000    0.000000    0.000000
    20        -0.437438815215592    1.502e-06    0.013771    0.000000    0.000000    0.000000
    21        -0.437438823188331    5.917e-07    0.013771    0.000000    0.000000    0.000000
    22        -0.437438824481245    2.810e-07    0.013771    0.000000    0.000000    0.000000
    23        -0.437438823373989    1.459e-07    0.013771    0.000000    0.000000    0.000000
    24        -0.437438822695827    6.059e-08    0.013771    0.000000    0.000000    0.000000
    25        -0.437438823660150    3.312e-08    0.013771    0.000000    0.000000    0.000000
    26        -0.437438824119841    2.573e-08    0.013771    0.000000    0.000000    0.000000
    27        -0.437438824278561    2.410e-08    0.013771    0.000000    0.000000    0.000000
    28        -0.437438824225996    2.335e-08    0.013771    0.000000    0.000000    0.000000
    29        -0.437438824061361    2.268e-08    0.013771    0.000000    0.000000    0.000000
    30        -0.437438823793653    2.158e-08    0.013772    0.000000    0.000000    0.000000
    31        -0.437438823992964    1.826e-08    0.013772    0.000000    0.000000    0.000000
    32        -0.437438824338976    9.575e-09    0.013772    0.000000    0.000000    0.000000
    33        -0.437438824441473    4.190e-09    0.013772    0.000000    0.000000    0.000000
    34        -0.437438824493704    1.711e-09    0.013772    0.000000    0.000000    0.000000
    35        -0.437438824500456    6.722e-10    0.013772    0.000000    0.000000    0.000000
    36        -0.437438824500219    2.879e-10    0.013772    0.000000    0.000000    0.000000

      * MP2 total energy                      = -151.291086167949771
      * CCSD total energy                     = -151.311908070249245
      * CCSD(T) total energy                     = -151.324263732645505
*** Psi4 exiting successfully. Buy a developer a beer!
