                               Psi4 1.3.2 release

  ==> Input File <==

--------------------------------------------------------------------------
memory 4 GB

molecule  {
0 3
O   -1.522636442466   -0.028942593331    0.000000000000
H   -0.557363545798   -0.010467179298    0.000000000000
H   -1.778451971769    0.897698108919    0.000000000000
O    1.669814055180   -0.026961021131    0.000000000000
}
set {
basis aug-cc-pvtz
reference uhf
e_convergence 10
scf_type pk
freeze_core true
}

set ccenergy {
e_convergence 10
r_convergence 10
}

e = energy('ccsd(t)')

print_out('Stephenergy {}'.format(e))

--------------------------------------------------------------------------

    Molecular point group: cs

    Geometry (in Angstrom), charge = 0, multiplicity = 3:

       Center              X                  Y                   Z               Mass
    ------------   -----------------  -----------------  -----------------  -----------------
         O           -1.522636442466    -0.028942593331     0.000000000000    15.994914619570
         H           -0.557363545798    -0.010467179298     0.000000000000     1.007825032230
         H           -1.778451971769     0.897698108919     0.000000000000     1.007825032230
         O            1.669814055180    -0.026961021131     0.000000000000    15.994914619570

  Charge       = 0
  Multiplicity = 3
  Basis Set: AUG-CC-PVTZ
    Blend: AUG-CC-PVTZ

    Orbital Energies [Eh]
    ---------------------

    Alpha Occupied:

       1Ap   -20.735006     2Ap   -20.558671     3Ap    -1.444318
       4Ap    -1.342074     5Ap    -0.734850     1App   -0.734707
       6Ap    -0.708995     7Ap    -0.636955     8Ap    -0.574340
       2App   -0.501488

    Alpha Virtual:

       9Ap     0.034590    10Ap     0.053256    11Ap     0.127536
       3App    0.131534    12Ap     0.148034    13Ap     0.161203
      14Ap     0.183457     4App    0.186268    15Ap     0.211490
      16Ap     0.241417    17Ap     0.271978     5App    0.282483
      18Ap     0.293247     6App    0.323314    19Ap     0.371681
      20Ap     0.392659    21Ap     0.460105    22Ap     0.558987
       7App    0.600000    23Ap     0.608581    24Ap     0.643672
      25Ap     0.668434    26Ap     0.712166     8App    0.712553
       9App    0.734756    10App    0.747358    27Ap     0.765727
      28Ap     0.796939    11App    0.824706    29Ap     0.851324
      30Ap     0.865562    12App    0.882969    31Ap     0.922997
      13App    0.942322    32Ap     0.944075    33Ap     0.956583
      14App    0.983847    34Ap     0.986057    35Ap     1.043343
      36Ap     1.127742    37Ap     1.168517    15App    1.177819
      38Ap     1.193587    16App    1.259165    39Ap     1.273153
      40Ap     1.323165    17App    1.528293    41Ap     1.555849
      18App    1.600159    42Ap     1.689333    43Ap     1.817988
      44Ap     1.825883    19App    1.975544    45Ap     1.975581
      46Ap     1.996068    20App    2.011088    47Ap     2.017692
      21App    2.048221    48Ap     2.060572    22App    2.122555
      49Ap     2.163850    50Ap     2.165383    23App    2.210831
      24App    2.294569    51Ap     2.300373    52Ap     2.328783
      53Ap     2.414498    25App    2.448374    54Ap     2.462360
      26App    2.523366    55Ap     2.535145    56Ap     2.630452
      57Ap     2.666616    27App    2.729332    58Ap     2.751757
      59Ap     2.864914    60Ap     2.942537    28App    2.946146
      61Ap     3.698543    62Ap     3.891541    29App    4.034395
      30App    4.058165    63Ap     4.076471    31App    4.170909
      64Ap     4.199369    65Ap     4.272164    32App    4.298984
      66Ap     4.376663    33App    4.392712    67Ap     4.436586
      34App    4.439078    68Ap     4.576194    69Ap     4.782223
      70Ap     4.958523    35App    5.152307    71Ap     5.177998
      72Ap     5.305790    73Ap     5.368491    36App    5.523215
      74Ap     5.688513    75Ap     6.195365    37App    6.310174
      76Ap     6.310217    38App    6.372651    77Ap     6.375395
      39App    6.520161    78Ap     6.527289    79Ap     6.556062
      80Ap     6.634409    40App    6.724167    81Ap     6.812217
      41App    6.818329    82Ap     6.911324    42App    6.933504
      83Ap     6.966382    84Ap     7.049338    43App    7.145878
      44App    7.274612    85Ap     7.322322    45App    7.323998
      86Ap     7.357972    46App    7.441755    87Ap     7.655352
      88Ap     7.943424    89Ap     7.964171    90Ap     8.804644
      91Ap     9.387266    92Ap    16.485622

    Beta Occupied:

       1Ap   -20.656225     2Ap   -20.558811     3Ap    -1.342678
       4Ap    -1.101864     5Ap    -0.707982     6Ap    -0.580947
       7Ap    -0.542130     1App   -0.501545

    Beta Virtual:

       8Ap     0.034223     9Ap     0.046046     2App    0.047601
      10Ap     0.057608    11Ap     0.144192    12Ap     0.150966
       3App    0.160473    13Ap     0.179881    14Ap     0.210208
      15Ap     0.217826     4App    0.225886    16Ap     0.251051
      17Ap     0.273945     5App    0.282821    18Ap     0.295503
       6App    0.327014    19Ap     0.375476    20Ap     0.403318
      21Ap     0.460822    22Ap     0.561919     7App    0.632309
      23Ap     0.638889    24Ap     0.646780    25Ap     0.671420
      26Ap     0.712855     8App    0.726304     9App    0.735900
      10App    0.748843    27Ap     0.784424    28Ap     0.809285
      29Ap     0.857052    11App    0.867453    30Ap     0.918224
      12App    0.935864    31Ap     0.943768    13App    0.949626
      32Ap     0.953947    33Ap     0.974037    34Ap     1.015568
      14App    1.025025    35Ap     1.047310    36Ap     1.153812
      37Ap     1.176460    15App    1.181090    38Ap     1.219062
      16App    1.270312    39Ap     1.275285    40Ap     1.334020
      17App    1.529148    41Ap     1.561582    18App    1.601758
      42Ap     1.716528    43Ap     1.823050    44Ap     1.833116
      45Ap     2.003581    19App    2.013649    46Ap     2.013852
      20App    2.052826    47Ap     2.065671    21App    2.170466
      22App    2.179545    48Ap     2.179629    49Ap     2.203545
      50Ap     2.227129    23App    2.248286    24App    2.296472
      51Ap     2.316025    52Ap     2.343394    53Ap     2.421767
      25App    2.450842    54Ap     2.463189    26App    2.532009
      55Ap     2.542536    56Ap     2.636625    57Ap     2.677968
      27App    2.730462    58Ap     2.758305    59Ap     2.869522
      60Ap     2.945283    28App    2.946841    61Ap     3.698995
      62Ap     3.894388    29App    4.034600    30App    4.144615
      63Ap     4.180069    64Ap     4.241975    31App    4.254333
      65Ap     4.294774    32App    4.299374    66Ap     4.391591
      33App    4.392898    34App    4.440630    67Ap     4.467312
      68Ap     4.577158    69Ap     4.783624    70Ap     4.960845
      35App    5.152293    71Ap     5.178533    72Ap     5.306012
      73Ap     5.369517    36App    5.523299    74Ap     5.689147
      75Ap     6.195830    37App    6.419135    76Ap     6.419162
      38App    6.448060    77Ap     6.450889    78Ap     6.533495
      39App    6.575112    79Ap     6.605942    80Ap     6.680518
      40App    6.728437    81Ap     6.913248    41App    7.004442
      82Ap     7.005354    42App    7.041563    83Ap     7.071242
      84Ap     7.129669    43App    7.148351    44App    7.275085
      85Ap     7.322480    45App    7.324822    86Ap     7.358427
      46App    7.442203    87Ap     7.656656    88Ap     7.943744
      89Ap     7.964346    90Ap     8.807127    91Ap     9.461841
      92Ap    16.486189

    Final Occupation by Irrep:
             Ap   App
    DOCC [     7,    1 ]
    SOCC [     1,    1 ]

  @UHF Final Energy:  -150.87430134541660

   => Energetics <=

    Nuclear Repulsion Energy =             22.8316024286265389
    One-Electron Energy =                -253.4482196255292195
    Two-Electron Energy =                  79.7423158514860830
    Total Energy =                       -150.8743013454165975

  UHF NO Occupations:
  HONO-2 :    7 Ap 1.9970290
  HONO-1 :    2App 1.0000000
  HONO-0 :    8 Ap 1.0000000
  LUNO+0 :    9 Ap 0.0029710
  LUNO+1 :   10 Ap 0.0017138
  LUNO+2 :   11 Ap 0.0000024
  LUNO+3 :   12 Ap 0.0000019

Computation Completed

Properties will be evaluated at   0.000000,   0.000000,   0.000000 [a0]

Properties computed using the SCF density matrix

  Nuclear Dipole Moment: [e a0]
     X:    -2.1890      Y:     0.8315      Z:     0.0000

  Electronic Dipole Moment: [e a0]
     X:     2.7548      Y:    -0.2140      Z:     0.0000

  Dipole Moment: [e a0]
     X:     0.5658      Y:     0.6175      Z:     0.0000     Total:     0.8375

  Dipole Moment: [D]
     X:     1.4380      Y:     1.5695      Z:     0.0000     Total:     2.1287

*** tstop() called on c5-3.compute.lan at Tue Mar  9 14:57:34 2021
Module time:
	user time   =      60.74 seconds =       1.01 minutes
	system time =       0.85 seconds =       0.01 minutes
	total time  =          5 seconds =       0.08 minutes
Total time:
	user time   =      60.74 seconds =       1.01 minutes
	system time =       0.85 seconds =       0.01 minutes
	total time  =          5 seconds =       0.08 minutes
 MINTS: Wrapper to libmints.
   by Justin Turney

   Calculation information:
      Number of threads:                12
      Number of atoms:                   4
      Number of AO shells:              46
      Number of SO shells:              46
      Number of primitives:             82
      Number of atomic orbitals:       160
      Number of basis functions:       138

      Number of irreps:                  2
      Integral cutoff                 0.00e+00
      Number of functions per irrep: [  92   46 ]

 OEINTS: Overlap, kinetic, potential, dipole, and quadrupole integrals
         stored in file 35.

      Computing two-electron integrals...done
      Computed 22943184 non-zero two-electron integrals.
        Stored in file 33.

*** tstart() called on c5-3.compute.lan
*** at Tue Mar  9 14:57:38 2021

	Wfn Parameters:
	--------------------
	Wavefunction         = CCSD_T
	Number of irreps     = 2
	Number of MOs        = 138
	Number of active MOs = 136
	AO-Basis             = NONE
	Semicanonical        = false
	Reference            = UHF
	Print Level          = 1

	IRREP	# MOs	# FZDC	# DOCC	# SOCC	# VIRT	# FZVR
	-----	-----	------	------	------	------	------
	 Ap	   92	    2	    5	    1	    84	    0
	 App	   46	    0	    1	    1	    44	    0
	Transforming integrals...
	IWL integrals will be deleted.
	(OO|OO)...
	Presorting SO-basis two-electron integrals.
	Sorting File: SO Ints (nn|nn) nbuckets = 1
	Transforming the one-electron integrals and constructing Fock matrices
	Starting AA/AB first half-transformation.
	Sorting AA/AB half-transformed integrals.
	Starting BB first half-transformation.
	Sorting BB half-transformed integrals.
	First half integral transformation complete.
	Starting AA second half-transformation.
	Starting AB second half-transformation.
	Starting BB second half-transformation.
	Two-electron integral transformation complete.
	(OO|OV)...
	Starting AA second half-transformation.
	Starting AB second half-transformation.
	Starting BB second half-transformation.
	Two-electron integral transformation complete.
	(OO|VV)...
	Starting AA second half-transformation.
	Starting AB second half-transformation.
	Starting BB second half-transformation.
	Two-electron integral transformation complete.
	(OV|OO)...
	Starting AA/AB first half-transformation.
	Sorting AA/AB half-transformed integrals.
	Starting BB first half-transformation.
	Sorting BB half-transformed integrals.
	First half integral transformation complete.
	Starting AA second half-transformation.
	Starting AB second half-transformation.
	Starting BB second half-transformation.
	Two-electron integral transformation complete.
	(OV|OV)...
	Starting AA second half-transformation.
	Starting AB second half-transformation.
	Starting BB second half-transformation.
	Two-electron integral transformation complete.
	(OV|VV)...
	Starting AA second half-transformation.
	Starting AB second half-transformation.
	Starting BB second half-transformation.
	Two-electron integral transformation complete.
	(VV|OO)...
	Starting AA/AB first half-transformation.
	Sorting AA/AB half-transformed integrals.
	Starting BB first half-transformation.
	Sorting BB half-transformed integrals.
	First half integral transformation complete.
	Starting AA second half-transformation.
	Starting AB second half-transformation.
	Starting BB second half-transformation.
	Two-electron integral transformation complete.
	(VV|OV)...
	Starting AA second half-transformation.
	Starting AB second half-transformation.
	Starting BB second half-transformation.
	Two-electron integral transformation complete.
	(VV|VV)...
	Starting AA second half-transformation.
	Starting AB second half-transformation.
	Starting BB second half-transformation.
	Two-electron integral transformation complete.
	Frozen core energy     =   -125.82104686188588

	Size of irrep 0 of <AB|CD> integrals:     19.643 (MW) /    157.141 (MB)
	Size of irrep 1 of <AB|CD> integrals:     13.660 (MW) /    109.283 (MB)
	Total:                                    33.303 (MW) /    266.424 (MB)

	Size of irrep 0 of <ab|cd> integrals:     20.794 (MW) /    166.349 (MB)
	Size of irrep 1 of <ab|cd> integrals:     14.631 (MW) /    117.045 (MB)
	Total:                                    35.424 (MW) /    283.394 (MB)

	Size of irrep 0 of <Ab|Cd> integrals:     83.174 (MW) /    665.395 (MB)
	Size of irrep 1 of <Ab|Cd> integrals:     56.550 (MW) /    452.403 (MB)
	Total:                                   139.725 (MW) /   1117.798 (MB)

	Size of irrep 0 of <IA|BC> integrals:      5.323 (MW) /     42.586 (MB)
	Size of irrep 1 of <IA|BC> integrals:      3.193 (MW) /     25.547 (MB)
	Total:                                     8.517 (MW) /     68.133 (MB)

	Size of irrep 0 of <ia|bc> integrals:      4.348 (MW) /     34.780 (MB)
	Size of irrep 1 of <ia|bc> integrals:      2.372 (MW) /     18.972 (MB)
	Total:                                     6.719 (MW) /     53.752 (MB)

	Size of irrep 0 of <Ia|Bc> integrals:      5.472 (MW) /     43.776 (MB)
	Size of irrep 1 of <Ia|Bc> integrals:      3.309 (MW) /     26.470 (MB)
	Total:                                     8.781 (MW) /     70.246 (MB)

	Size of irrep 0 of <iA|bC> integrals:      4.232 (MW) /     33.853 (MB)
	Size of irrep 1 of <iA|bC> integrals:      2.286 (MW) /     18.289 (MB)
	Total:                                     6.518 (MW) /     52.142 (MB)

	Size of irrep 0 of tIjAb amplitudes:       0.292 (MW) /      2.335 (MB)
	Size of irrep 1 of tIjAb amplitudes:       0.120 (MW) /      0.963 (MB)
	Total:                                     0.412 (MW) /      3.297 (MB)

	Nuclear Rep. energy          =     22.83160242862654
	SCF energy                   =   -150.87430134541660
	One-electron energy          =    -84.31483951958431
	Two-electron (AA) energy     =     10.12131642169188
	Two-electron (BB) energy     =      5.38504192761249
	Two-electron (AB) energy     =     20.92362425812134
	Two-electron energy          =     36.42998260742570
	Reference energy             =   -150.87430134541796

*** tstop() called on c5-3.compute.lan at Tue Mar  9 14:58:08 2021
Module time:
	user time   =     106.69 seconds =       1.78 minutes
	system time =      15.90 seconds =       0.27 minutes
	total time  =         30 seconds =       0.50 minutes
Total time:
	user time   =     174.06 seconds =       2.90 minutes
	system time =      17.38 seconds =       0.29 minutes
	total time  =         39 seconds =       0.65 minutes
            **************************
            *                        *
            *        CCENERGY        *
            *                        *
            **************************

    Nuclear Rep. energy (wfn)     =   22.831602428626539
    SCF energy          (wfn)     = -150.874301345416598
    Reference energy    (file100) = -150.874301345417962

    Input parameters:
    -----------------
    Wave function   =     CCSD_T
    Reference wfn   =     UHF
    Brueckner       =     No
    Memory (Mbytes) =     4000.0
    Maxiter         =     50
    R_Convergence   =     1.0e-10
    E_Convergence   =     1.0e-10
    Restart         =     Yes
    DIIS            =     Yes
    AO Basis        =     NONE
    ABCD            =     NEW
    Cache Level     =     2
    Cache Type      =     LRU
    Print Level     =     1
    Num. of threads =     12
    # Amps to Print =     10
    Print MP2 Amps? =     No
    Analyze T2 Amps =     No
    Print Pair Ener =     No
    Local CC        =     No
    SCS-MP2         =     False
    SCSN-MP2        =     False
    SCS-CCSD        =     False

MP2 correlation energy -0.4166896719821529
                Solving CC Amplitude Equations
                ------------------------------
  Iter             Energy              RMS        T1Diag      D1Diag    New D1Diag    D2Diag
  ----     ---------------------    ---------   ----------  ----------  ----------   --------
     0        -0.416689671982153    0.000e+00    0.000000    0.000000    0.000000    0.000000
     1        -0.427389662891711    5.692e-02    0.010555    0.000000    0.000000    0.000000
     2        -0.435494928155504    1.691e-02    0.011041    0.000000    0.000000    0.000000
     3        -0.437615977778640    8.584e-03    0.012915    0.000000    0.000000    0.000000
     4        -0.437490811859239    2.537e-03    0.013283    0.000000    0.000000    0.000000
     5        -0.437475722515206    1.328e-03    0.013441    0.000000    0.000000    0.000000
     6        -0.437502995826447    5.169e-04    0.013464    0.000000    0.000000    0.000000
     7        -0.437507817601326    2.681e-04    0.013459    0.000000    0.000000    0.000000
     8        -0.437508391174352    9.657e-05    0.013454    0.000000    0.000000    0.000000
     9        -0.437509803408408    6.914e-05    0.013455    0.000000    0.000000    0.000000
    10        -0.437508244321999    5.773e-05    0.013456    0.000000    0.000000    0.000000
    11        -0.437508372596688    5.447e-05    0.013457    0.000000    0.000000    0.000000
    12        -0.437508175521968    5.274e-05    0.013459    0.000000    0.000000    0.000000
    13        -0.437508163135010    5.179e-05    0.013461    0.000000    0.000000    0.000000
    14        -0.437509069120025    5.052e-05    0.013471    0.000000    0.000000    0.000000
    15        -0.437509399115417    4.622e-05    0.013515    0.000000    0.000000    0.000000
    16        -0.437509170429869    3.351e-05    0.013632    0.000000    0.000000    0.000000
    17        -0.437508878229706    1.706e-05    0.013704    0.000000    0.000000    0.000000
    18        -0.437508731102645    8.028e-06    0.013725    0.000000    0.000000    0.000000
    19        -0.437508977375340    3.529e-06    0.013730    0.000000    0.000000    0.000000
    20        -0.437509095716319    1.556e-06    0.013731    0.000000    0.000000    0.000000
    21        -0.437509102453517    6.194e-07    0.013731    0.000000    0.000000    0.000000
    22        -0.437509103538791    2.806e-07    0.013731    0.000000    0.000000    0.000000
    23        -0.437509102872447    1.410e-07    0.013731    0.000000    0.000000    0.000000
    24        -0.437509102102757    5.414e-08    0.013731    0.000000    0.000000    0.000000
    25        -0.437509103002525    2.682e-08    0.013731    0.000000    0.000000    0.000000
    26        -0.437509103432539    1.871e-08    0.013731    0.000000    0.000000    0.000000
    27        -0.437509103559964    1.701e-08    0.013731    0.000000    0.000000    0.000000
    28        -0.437509103538780    1.641e-08    0.013731    0.000000    0.000000    0.000000
    29        -0.437509103446618    1.600e-08    0.013731    0.000000    0.000000    0.000000
    30        -0.437509103263631    1.550e-08    0.013731    0.000000    0.000000    0.000000
    31        -0.437509103291810    1.399e-08    0.013731    0.000000    0.000000    0.000000
    32        -0.437509103532435    8.967e-09    0.013732    0.000000    0.000000    0.000000
    33        -0.437509103623300    4.162e-09    0.013732    0.000000    0.000000    0.000000
    34        -0.437509103681128    1.778e-09    0.013732    0.000000    0.000000    0.000000
    35        -0.437509103688425    6.962e-10    0.013732    0.000000    0.000000    0.000000
    36        -0.437509103687647    2.783e-10    0.013732    0.000000    0.000000    0.000000

      * MP2 total energy                      = -151.290991017400103
      * CCSD total energy                     = -151.311810449104883
      * CCSD(T) total energy                     = -151.324179395906100
*** Psi4 exiting successfully. Buy a developer a beer!
