                               Psi4 1.3.2 release

  ==> Input File <==

--------------------------------------------------------------------------
memory 4 GB

molecule  {
0 3
O   -1.638982113598   -0.022705896175    0.000000000000
H   -0.676942049298   -0.024531189275    0.000000000000
H   -1.862356543085    0.911481782038    0.000000000000
O    1.798981009909   -0.033180054516    0.000000000000
}
set {
basis aug-cc-pvtz
reference uhf
e_convergence 10
scf_type pk
freeze_core true
}

set ccenergy {
e_convergence 10
r_convergence 10
}

e = energy('ccsd(t)')

print_out('Stephenergy {}'.format(e))

--------------------------------------------------------------------------

    Molecular point group: cs

    Geometry (in Angstrom), charge = 0, multiplicity = 3:

       Center              X                  Y                   Z               Mass
    ------------   -----------------  -----------------  -----------------  -----------------
         O           -1.638982113598    -0.022705896175     0.000000000000    15.994914619570
         H           -0.676942049298    -0.024531189275     0.000000000000     1.007825032230
         H           -1.862356543085     0.911481782038     0.000000000000     1.007825032230
         O            1.798981009909    -0.033180054516     0.000000000000    15.994914619570

  Charge       = 0
  Multiplicity = 3
  Basis Set: AUG-CC-PVTZ
    Blend: AUG-CC-PVTZ

    Orbital Energies [Eh]
    ---------------------

    Alpha Occupied:

       1Ap   -20.730895     2Ap   -20.561674     3Ap    -1.439704
       4Ap    -1.346123     5Ap    -0.730619     1App   -0.730530
       6Ap    -0.708839     7Ap    -0.632932     8Ap    -0.579465
       2App   -0.504350

    Alpha Virtual:

       9Ap     0.034163    10Ap     0.053412    11Ap     0.128621
       3App    0.132421    12Ap     0.147329    13Ap     0.160402
      14Ap     0.182827     4App    0.183115    15Ap     0.206966
      16Ap     0.235639    17Ap     0.268982     5App    0.281008
      18Ap     0.289346     6App    0.318194    19Ap     0.361878
      20Ap     0.386900    21Ap     0.457219    22Ap     0.554565
       7App    0.603403    23Ap     0.608004    24Ap     0.643179
      25Ap     0.666855     8App    0.686542    26Ap     0.711257
       9App    0.733456    10App    0.747556    27Ap     0.757201
      28Ap     0.788997    11App    0.824993    29Ap     0.838070
      30Ap     0.853997    12App    0.876398    31Ap     0.913750
      32Ap     0.928420    13App    0.937359    33Ap     0.949523
      14App    0.973725    34Ap     0.975725    35Ap     1.038567
      36Ap     1.084745    15App    1.163467    37Ap     1.170599
      16App    1.211105    38Ap     1.219313    39Ap     1.265456
      40Ap     1.276501    17App    1.521661    41Ap     1.530655
      18App    1.589267    42Ap     1.600072    43Ap     1.808162
      44Ap     1.816020    19App    1.978604    45Ap     1.978663
      46Ap     2.004730    20App    2.009462    47Ap     2.018887
      21App    2.034551    48Ap     2.039970    22App    2.089469
      49Ap     2.122652    50Ap     2.138677    23App    2.162539
      51Ap     2.238561    24App    2.286753    52Ap     2.326410
      53Ap     2.368821    25App    2.427925    54Ap     2.453838
      26App    2.459135    55Ap     2.484551    56Ap     2.547142
      57Ap     2.655288    27App    2.722426    58Ap     2.722666
      59Ap     2.856308    60Ap     2.906441    28App    2.934772
      61Ap     3.686028    62Ap     3.811621    29App    4.031612
      30App    4.053968    63Ap     4.068337    31App    4.143370
      64Ap     4.178536    65Ap     4.271504    32App    4.287898
      66Ap     4.359389    33App    4.389810    67Ap     4.425324
      34App    4.430097    68Ap     4.566772    69Ap     4.775648
      70Ap     4.941434    35App    5.153631    71Ap     5.185846
      72Ap     5.294406    73Ap     5.370953    36App    5.530396
      74Ap     5.675761    75Ap     6.196821    37App    6.313995
      76Ap     6.314017    38App    6.366650    77Ap     6.367766
      39App    6.466415    78Ap     6.483697    79Ap     6.529639
      80Ap     6.595604    40App    6.717143    81Ap     6.814209
      41App    6.818170    82Ap     6.921885    42App    6.924682
      83Ap     6.953269    84Ap     7.039124    43App    7.140547
      44App    7.271322    85Ap     7.311280    45App    7.326237
      86Ap     7.354584    46App    7.410232    87Ap     7.636134
      88Ap     7.922429    89Ap     7.959852    90Ap     8.815736
      91Ap     8.989994    92Ap    16.337000

    Beta Occupied:

       1Ap   -20.652149     2Ap   -20.561747     3Ap    -1.346413
       4Ap    -1.097156     5Ap    -0.708644     6Ap    -0.582291
       7Ap    -0.540575     1App   -0.504388

    Beta Virtual:

       8Ap     0.034079     9Ap     0.047334     2App    0.049946
      10Ap     0.058750    11Ap     0.143138    12Ap     0.151701
       3App    0.160100    13Ap     0.179808    14Ap     0.207471
      15Ap     0.217415     4App    0.226511    16Ap     0.244500
      17Ap     0.271379     5App    0.281203    18Ap     0.292005
       6App    0.319677    19Ap     0.365227    20Ap     0.393868
      21Ap     0.457688    22Ap     0.556699     7App    0.636285
      23Ap     0.638268    24Ap     0.646533    25Ap     0.670435
       8App    0.700529    26Ap     0.711892     9App    0.734220
      10App    0.748609    27Ap     0.771027    28Ap     0.800502
      29Ap     0.845436    11App    0.860889    30Ap     0.911886
      12App    0.925472    31Ap     0.929170    32Ap     0.946234
      13App    0.948247    33Ap     0.966986    34Ap     1.008251
      14App    1.023048    35Ap     1.040138    36Ap     1.093748
      15App    1.167949    37Ap     1.173692    16App    1.218832
      38Ap     1.260407    39Ap     1.271119    40Ap     1.285073
      17App    1.522448    41Ap     1.544484    18App    1.590243
      42Ap     1.627035    43Ap     1.810690    44Ap     1.818506
      45Ap     2.016100    19App    2.016762    46Ap     2.017074
      20App    2.038702    47Ap     2.045584    21App    2.124532
      48Ap     2.163259    49Ap     2.173418    22App    2.179274
      50Ap     2.180486    23App    2.213792    51Ap     2.278753
      24App    2.288176    52Ap     2.336199    53Ap     2.385250
      25App    2.431399    54Ap     2.455965    26App    2.466573
      55Ap     2.491382    56Ap     2.552890    57Ap     2.661968
      27App    2.723000    58Ap     2.724774    59Ap     2.859887
      60Ap     2.908311    28App    2.935416    61Ap     3.686299
      62Ap     3.812723    29App    4.032231    30App    4.127725
      63Ap     4.169236    31App    4.239633    64Ap     4.241408
      65Ap     4.278154    32App    4.287933    66Ap     4.375827
      33App    4.390100    34App    4.431588    67Ap     4.456286
      68Ap     4.567519    69Ap     4.776663    70Ap     4.942156
      35App    5.153619    71Ap     5.186250    72Ap     5.294614
      73Ap     5.371745    36App    5.530396    74Ap     5.676085
      75Ap     6.197698    37App    6.422949    76Ap     6.422964
      38App    6.442791    77Ap     6.444055    78Ap     6.518091
      39App    6.522284    79Ap     6.551030    80Ap     6.642624
      40App    6.719536    81Ap     6.923432    41App    7.005545
      82Ap     7.006354    42App    7.034262    83Ap     7.060116
      84Ap     7.122191    43App    7.142401    44App    7.271444
      85Ap     7.311529    45App    7.326782    86Ap     7.354716
      46App    7.410795    87Ap     7.638350    88Ap     7.922823
      89Ap     7.960176    90Ap     8.819502    91Ap     9.064028
      92Ap    16.337296

    Final Occupation by Irrep:
             Ap   App
    DOCC [     7,    1 ]
    SOCC [     1,    1 ]

  @UHF Final Energy:  -150.87468154665021

   => Energetics <=

    Nuclear Repulsion Energy =             21.8385707208406714
    One-Electron Energy =                -251.4680116883722008
    Two-Electron Energy =                  78.7547594208813280
    Total Energy =                       -150.8746815466502085

  UHF NO Occupations:
  HONO-2 :    7 Ap 1.9970404
  HONO-1 :    8 Ap 1.0000000
  HONO-0 :    2App 1.0000000
  LUNO+0 :    9 Ap 0.0029596
  LUNO+1 :   10 Ap 0.0017386
  LUNO+2 :   11 Ap 0.0000024
  LUNO+3 :   12 Ap 0.0000006

Computation Completed

Properties will be evaluated at   0.000000,   0.000000,   0.000000 [a0]

Properties computed using the SCF density matrix

  Nuclear Dipole Moment: [e a0]
     X:    -2.3797      Y:     0.8312      Z:     0.0000

  Electronic Dipole Moment: [e a0]
     X:     2.9371      Y:    -0.2213      Z:     0.0000

  Dipole Moment: [e a0]
     X:     0.5574      Y:     0.6099      Z:     0.0000     Total:     0.8263

  Dipole Moment: [D]
     X:     1.4167      Y:     1.5503      Z:     0.0000     Total:     2.1001

*** tstop() called on d3-19.compute.lan at Tue Mar  9 14:29:34 2021
Module time:
	user time   =      54.87 seconds =       0.91 minutes
	system time =       2.31 seconds =       0.04 minutes
	total time  =          5 seconds =       0.08 minutes
Total time:
	user time   =      54.87 seconds =       0.91 minutes
	system time =       2.31 seconds =       0.04 minutes
	total time  =          5 seconds =       0.08 minutes
 MINTS: Wrapper to libmints.
   by Justin Turney

   Calculation information:
      Number of threads:                12
      Number of atoms:                   4
      Number of AO shells:              46
      Number of SO shells:              46
      Number of primitives:             82
      Number of atomic orbitals:       160
      Number of basis functions:       138

      Number of irreps:                  2
      Integral cutoff                 0.00e+00
      Number of functions per irrep: [  92   46 ]

 OEINTS: Overlap, kinetic, potential, dipole, and quadrupole integrals
         stored in file 35.

      Computing two-electron integrals...done
      Computed 22919939 non-zero two-electron integrals.
        Stored in file 33.

*** tstart() called on d3-19.compute.lan
*** at Tue Mar  9 14:29:39 2021

	Wfn Parameters:
	--------------------
	Wavefunction         = CCSD_T
	Number of irreps     = 2
	Number of MOs        = 138
	Number of active MOs = 136
	AO-Basis             = NONE
	Semicanonical        = false
	Reference            = UHF
	Print Level          = 1

	IRREP	# MOs	# FZDC	# DOCC	# SOCC	# VIRT	# FZVR
	-----	-----	------	------	------	------	------
	 Ap	   92	    2	    5	    1	    84	    0
	 App	   46	    0	    1	    1	    44	    0
	Transforming integrals...
	IWL integrals will be deleted.
	(OO|OO)...
	Presorting SO-basis two-electron integrals.
	Sorting File: SO Ints (nn|nn) nbuckets = 1
	Transforming the one-electron integrals and constructing Fock matrices
	Starting AA/AB first half-transformation.
	Sorting AA/AB half-transformed integrals.
	Starting BB first half-transformation.
	Sorting BB half-transformed integrals.
	First half integral transformation complete.
	Starting AA second half-transformation.
	Starting AB second half-transformation.
	Starting BB second half-transformation.
	Two-electron integral transformation complete.
	(OO|OV)...
	Starting AA second half-transformation.
	Starting AB second half-transformation.
	Starting BB second half-transformation.
	Two-electron integral transformation complete.
	(OO|VV)...
	Starting AA second half-transformation.
	Starting AB second half-transformation.
	Starting BB second half-transformation.
	Two-electron integral transformation complete.
	(OV|OO)...
	Starting AA/AB first half-transformation.
	Sorting AA/AB half-transformed integrals.
	Starting BB first half-transformation.
	Sorting BB half-transformed integrals.
	First half integral transformation complete.
	Starting AA second half-transformation.
	Starting AB second half-transformation.
	Starting BB second half-transformation.
	Two-electron integral transformation complete.
	(OV|OV)...
	Starting AA second half-transformation.
	Starting AB second half-transformation.
	Starting BB second half-transformation.
	Two-electron integral transformation complete.
	(OV|VV)...
	Starting AA second half-transformation.
	Starting AB second half-transformation.
	Starting BB second half-transformation.
	Two-electron integral transformation complete.
	(VV|OO)...
	Starting AA/AB first half-transformation.
	Sorting AA/AB half-transformed integrals.
	Starting BB first half-transformation.
	Sorting BB half-transformed integrals.
	First half integral transformation complete.
	Starting AA second half-transformation.
	Starting AB second half-transformation.
	Starting BB second half-transformation.
	Two-electron integral transformation complete.
	(VV|OV)...
	Starting AA second half-transformation.
	Starting AB second half-transformation.
	Starting BB second half-transformation.
	Two-electron integral transformation complete.
	(VV|VV)...
	Starting AA second half-transformation.
	Starting AB second half-transformation.
	Starting BB second half-transformation.
	Two-electron integral transformation complete.
	Frozen core energy     =   -125.43007718489457

	Size of irrep 0 of <AB|CD> integrals:     19.643 (MW) /    157.141 (MB)
	Size of irrep 1 of <AB|CD> integrals:     13.660 (MW) /    109.283 (MB)
	Total:                                    33.303 (MW) /    266.424 (MB)

	Size of irrep 0 of <ab|cd> integrals:     20.794 (MW) /    166.349 (MB)
	Size of irrep 1 of <ab|cd> integrals:     14.631 (MW) /    117.045 (MB)
	Total:                                    35.424 (MW) /    283.394 (MB)

	Size of irrep 0 of <Ab|Cd> integrals:     83.174 (MW) /    665.395 (MB)
	Size of irrep 1 of <Ab|Cd> integrals:     56.550 (MW) /    452.403 (MB)
	Total:                                   139.725 (MW) /   1117.798 (MB)

	Size of irrep 0 of <IA|BC> integrals:      5.323 (MW) /     42.586 (MB)
	Size of irrep 1 of <IA|BC> integrals:      3.193 (MW) /     25.547 (MB)
	Total:                                     8.517 (MW) /     68.133 (MB)

	Size of irrep 0 of <ia|bc> integrals:      4.348 (MW) /     34.780 (MB)
	Size of irrep 1 of <ia|bc> integrals:      2.372 (MW) /     18.972 (MB)
	Total:                                     6.719 (MW) /     53.752 (MB)

	Size of irrep 0 of <Ia|Bc> integrals:      5.472 (MW) /     43.776 (MB)
	Size of irrep 1 of <Ia|Bc> integrals:      3.309 (MW) /     26.470 (MB)
	Total:                                     8.781 (MW) /     70.246 (MB)

	Size of irrep 0 of <iA|bC> integrals:      4.232 (MW) /     33.853 (MB)
	Size of irrep 1 of <iA|bC> integrals:      2.286 (MW) /     18.289 (MB)
	Total:                                     6.518 (MW) /     52.142 (MB)

	Size of irrep 0 of tIjAb amplitudes:       0.292 (MW) /      2.335 (MB)
	Size of irrep 1 of tIjAb amplitudes:       0.120 (MW) /      0.963 (MB)
	Total:                                     0.412 (MW) /      3.297 (MB)

	Nuclear Rep. energy          =     21.83857072084067
	SCF energy                   =   -150.87468154665021
	One-electron energy          =    -83.11432119581696
	Two-electron (AA) energy     =      9.92435264846356
	Two-electron (BB) energy     =      5.28247106822947
	Two-electron (AB) energy     =     20.62432239652605
	Two-electron energy          =     35.83114611321908
	Reference energy             =   -150.87468154665177

*** tstop() called on d3-19.compute.lan at Tue Mar  9 14:30:18 2021
Module time:
	user time   =     224.05 seconds =       3.73 minutes
	system time =      18.13 seconds =       0.30 minutes
	total time  =         39 seconds =       0.65 minutes
Total time:
	user time   =     286.23 seconds =       4.77 minutes
	system time =      21.36 seconds =       0.36 minutes
	total time  =         49 seconds =       0.82 minutes
            **************************
            *                        *
            *        CCENERGY        *
            *                        *
            **************************

    Nuclear Rep. energy (wfn)     =   21.838570720840671
    SCF energy          (wfn)     = -150.874681546650208
    Reference energy    (file100) = -150.874681546651772

    Input parameters:
    -----------------
    Wave function   =     CCSD_T
    Reference wfn   =     UHF
    Brueckner       =     No
    Memory (Mbytes) =     4000.0
    Maxiter         =     50
    R_Convergence   =     1.0e-10
    E_Convergence   =     1.0e-10
    Restart         =     Yes
    DIIS            =     Yes
    AO Basis        =     NONE
    ABCD            =     NEW
    Cache Level     =     2
    Cache Type      =     LRU
    Print Level     =     1
    Num. of threads =     12
    # Amps to Print =     10
    Print MP2 Amps? =     No
    Analyze T2 Amps =     No
    Print Pair Ener =     No
    Local CC        =     No
    SCS-MP2         =     False
    SCSN-MP2        =     False
    SCS-CCSD        =     False

MP2 correlation energy -0.4160476555479553
                Solving CC Amplitude Equations
                ------------------------------
  Iter             Energy              RMS        T1Diag      D1Diag    New D1Diag    D2Diag
  ----     ---------------------    ---------   ----------  ----------  ----------   --------
     0        -0.416047655547955    0.000e+00    0.000000    0.000000    0.000000    0.000000
     1        -0.426833972001604    5.660e-02    0.010442    0.000000    0.000000    0.000000
     2        -0.434914146587994    1.684e-02    0.010924    0.000000    0.000000    0.000000
     3        -0.437028032129997    8.464e-03    0.012757    0.000000    0.000000    0.000000
     4        -0.436902522118323    2.517e-03    0.013106    0.000000    0.000000    0.000000
     5        -0.436891169747754    1.270e-03    0.013250    0.000000    0.000000    0.000000
     6        -0.436917121867338    5.019e-04    0.013263    0.000000    0.000000    0.000000
     7        -0.436921142232274    2.249e-04    0.013252    0.000000    0.000000    0.000000
     8        -0.436921929914929    7.577e-05    0.013246    0.000000    0.000000    0.000000
     9        -0.436923144510347    4.499e-05    0.013246    0.000000    0.000000    0.000000
    10        -0.436921969072484    3.665e-05    0.013246    0.000000    0.000000    0.000000
    11        -0.436922070138744    3.523e-05    0.013246    0.000000    0.000000    0.000000
    12        -0.436921933128446    3.463e-05    0.013247    0.000000    0.000000    0.000000
    13        -0.436921845618896    3.417e-05    0.013248    0.000000    0.000000    0.000000
    14        -0.436922275672080    3.324e-05    0.013254    0.000000    0.000000    0.000000
    15        -0.436922318723700    3.081e-05    0.013267    0.000000    0.000000    0.000000
    16        -0.436922293477272    2.534e-05    0.013340    0.000000    0.000000    0.000000
    17        -0.436922269012708    1.469e-05    0.013390    0.000000    0.000000    0.000000
    18        -0.436922194029821    6.455e-06    0.013412    0.000000    0.000000    0.000000
    19        -0.436922346229641    2.866e-06    0.013417    0.000000    0.000000    0.000000
    20        -0.436922427743613    1.351e-06    0.013418    0.000000    0.000000    0.000000
    21        -0.436922433323685    5.653e-07    0.013418    0.000000    0.000000    0.000000
    22        -0.436922433619395    2.249e-07    0.013418    0.000000    0.000000    0.000000
    23        -0.436922434174232    9.590e-08    0.013418    0.000000    0.000000    0.000000
    24        -0.436922434059144    4.065e-08    0.013418    0.000000    0.000000    0.000000
    25        -0.436922434714847    2.140e-08    0.013418    0.000000    0.000000    0.000000
    26        -0.436922435092538    7.449e-09    0.013418    0.000000    0.000000    0.000000
    27        -0.436922435165546    2.632e-09    0.013418    0.000000    0.000000    0.000000
    28        -0.436922435190170    1.552e-09    0.013418    0.000000    0.000000    0.000000
    29        -0.436922435190383    1.247e-09    0.013418    0.000000    0.000000    0.000000
    30        -0.436922435180613    1.101e-09    0.013418    0.000000    0.000000    0.000000
    31        -0.436922435172514    1.028e-09    0.013418    0.000000    0.000000    0.000000
    32        -0.436922435167224    9.832e-10    0.013418    0.000000    0.000000    0.000000
    33        -0.436922435164174    9.091e-10    0.013418    0.000000    0.000000    0.000000
    34        -0.436922435164826    6.951e-10    0.013418    0.000000    0.000000    0.000000
    35        -0.436922435166239    3.668e-10    0.013418    0.000000    0.000000    0.000000
    36        -0.436922435167071    1.459e-10    0.013418    0.000000    0.000000    0.000000

      * MP2 total energy                      = -151.290729202199714
      * CCSD total energy                     = -151.311603981817370
      * CCSD(T) total energy                     = -151.323867871106870
*** Psi4 exiting successfully. Buy a developer a beer!
