                               Psi4 1.3.2 release

  ==> Input File <==

--------------------------------------------------------------------------
memory 4 GB

molecule  {
0 3
O   -1.558088525294   -0.023328877326    0.000000000000
H   -0.595041728052   -0.016000482227    0.000000000000
H   -1.818483503338    0.902617628488    0.000000000000
O    1.710162556445   -0.032536063204    0.000000000000
}
set {
basis aug-cc-pvtz
reference uhf
e_convergence 10
scf_type pk
freeze_core true
}

set ccenergy {
e_convergence 10
r_convergence 10
}

e = energy('ccsd(t)')

print_out('Stephenergy {}'.format(e))

--------------------------------------------------------------------------

    Molecular point group: cs

    Geometry (in Angstrom), charge = 0, multiplicity = 3:

       Center              X                  Y                   Z               Mass
    ------------   -----------------  -----------------  -----------------  -----------------
         O           -1.558088525294    -0.023328877326     0.000000000000    15.994914619570
         H           -0.595041728052    -0.016000482227     0.000000000000     1.007825032230
         H           -1.818483503338     0.902617628488     0.000000000000     1.007825032230
         O            1.710162556445    -0.032536063204     0.000000000000    15.994914619570

  Charge       = 0
  Multiplicity = 3
  Basis Set: AUG-CC-PVTZ
    Blend: AUG-CC-PVTZ

    Orbital Energies [Eh]
    ---------------------

    Alpha Occupied:

       1Ap   -20.733455     2Ap   -20.559252     3Ap    -1.442551
       4Ap    -1.342768     5Ap    -0.733235     1App   -0.733115
       6Ap    -0.711146     7Ap    -0.635528     8Ap    -0.573973
       2App   -0.502206

    Alpha Virtual:

       9Ap     0.034479    10Ap     0.053292    11Ap     0.127966
       3App    0.131802    12Ap     0.147981    13Ap     0.160889
      14Ap     0.183096     4App    0.185214    15Ap     0.210009
      16Ap     0.240029    17Ap     0.270387     5App    0.282044
      18Ap     0.292978     6App    0.322310    19Ap     0.368452
      20Ap     0.390656    21Ap     0.458919    22Ap     0.558509
       7App    0.601021    23Ap     0.608050    24Ap     0.645671
      25Ap     0.666174     8App    0.704261    26Ap     0.713100
       9App    0.734186    10App    0.746754    27Ap     0.763677
      28Ap     0.794372    11App    0.824335    29Ap     0.846762
      30Ap     0.859530    12App    0.879910    31Ap     0.919687
      32Ap     0.938832    13App    0.942408    33Ap     0.953760
      14App    0.979905    34Ap     0.985825    35Ap     1.041937
      36Ap     1.118930    37Ap     1.171339    15App    1.171901
      38Ap     1.194009    16App    1.243651    39Ap     1.268939
      40Ap     1.305508    17App    1.526531    41Ap     1.557934
      18App    1.599588    42Ap     1.665738    43Ap     1.805902
      44Ap     1.815856    19App    1.976718    45Ap     1.976768
      46Ap     2.000095    20App    2.010845    47Ap     2.018506
      21App    2.042276    48Ap     2.053545    22App    2.112510
      49Ap     2.151362    50Ap     2.158870    23App    2.194608
      51Ap     2.282050    24App    2.290974    52Ap     2.327848
      53Ap     2.402130    25App    2.440588    54Ap     2.456996
      26App    2.500354    55Ap     2.514899    56Ap     2.597717
      57Ap     2.665885    27App    2.728070    58Ap     2.742629
      59Ap     2.864477    60Ap     2.941005    28App    2.943528
      61Ap     3.692675    62Ap     3.867393    29App    4.028311
      30App    4.056488    63Ap     4.073961    31App    4.163863
      64Ap     4.205332    65Ap     4.264928    32App    4.309262
      66Ap     4.376634    33App    4.392011    34App    4.434607
      67Ap     4.440986    68Ap     4.565625    69Ap     4.774904
      70Ap     4.944103    35App    5.156845    71Ap     5.167837
      72Ap     5.313517    73Ap     5.370689    36App    5.520874
      74Ap     5.699508    75Ap     6.184943    37App    6.311626
      76Ap     6.311657    38App    6.370111    77Ap     6.372418
      39App    6.501966    78Ap     6.517858    79Ap     6.547233
      80Ap     6.617557    40App    6.721199    81Ap     6.812642
      41App    6.818439    82Ap     6.900881    42App    6.930944
      83Ap     6.960917    84Ap     7.046535    43App    7.146074
      44App    7.272559    45App    7.321484    85Ap     7.329395
      86Ap     7.357082    46App    7.433804    87Ap     7.654938
      88Ap     7.944837    89Ap     7.958642    90Ap     8.800787
      91Ap     9.257964    92Ap    16.465148

    Beta Occupied:

       1Ap   -20.654685     2Ap   -20.559366     3Ap    -1.343245
       4Ap    -1.100057     5Ap    -0.710567     6Ap    -0.579086
       7Ap    -0.541579     1App   -0.502257

    Beta Virtual:

       8Ap     0.034233     9Ap     0.046623     2App    0.048536
      10Ap     0.057928    11Ap     0.144061    12Ap     0.151205
       3App    0.160187    13Ap     0.179582    14Ap     0.209484
      15Ap     0.217874     4App    0.226348    16Ap     0.249385
      17Ap     0.272441     5App    0.282333    18Ap     0.295384
       6App    0.325150    19Ap     0.372010    20Ap     0.399982
      21Ap     0.459545    22Ap     0.561116     7App    0.633482
      23Ap     0.638640    24Ap     0.648412    25Ap     0.669303
      26Ap     0.713804     8App    0.717995     9App    0.735303
      10App    0.748075    27Ap     0.780680    28Ap     0.806104
      29Ap     0.852272    11App    0.864188    30Ap     0.915705
      12App    0.932931    31Ap     0.939114    13App    0.949891
      32Ap     0.950226    33Ap     0.974334    34Ap     1.013640
      14App    1.023934    35Ap     1.044942    36Ap     1.135214
      15App    1.175198    37Ap     1.177868    38Ap     1.230324
      16App    1.254228    39Ap     1.270668    40Ap     1.316143
      17App    1.527358    41Ap     1.564682    18App    1.600962
      42Ap     1.694979    43Ap     1.810062    44Ap     1.820075
      45Ap     2.009015    19App    2.014849    46Ap     2.015029
      20App    2.047054    47Ap     2.059034    21App    2.156812
      22App    2.179122    48Ap     2.179727    49Ap     2.197027
      50Ap     2.209275    23App    2.236179    24App    2.292748
      51Ap     2.306664    52Ap     2.337259    53Ap     2.412264
      25App    2.442920    54Ap     2.458027    26App    2.509099
      55Ap     2.522521    56Ap     2.603876    57Ap     2.675748
      27App    2.728991    58Ap     2.747451    59Ap     2.869003
      60Ap     2.943515    28App    2.944235    61Ap     3.693114
      62Ap     3.869463    29App    4.028618    30App    4.140470
      63Ap     4.188425    64Ap     4.241642    31App    4.250032
      65Ap     4.283475    32App    4.309370    33App    4.392191
      66Ap     4.394342    34App    4.436178    67Ap     4.469567
      68Ap     4.566544    69Ap     4.776529    70Ap     4.945806
      35App    5.156825    71Ap     5.168252    72Ap     5.313719
      73Ap     5.371573    36App    5.520913    74Ap     5.700008
      75Ap     6.185500    37App    6.420590    76Ap     6.420610
      38App    6.445800    77Ap     6.448328    78Ap     6.533654
      39App    6.557308    79Ap     6.587233    80Ap     6.664446
      40App    6.724789    81Ap     6.901006    41App    7.005030
      82Ap     7.005621    42App    7.039326    83Ap     7.067936
      84Ap     7.127604    43App    7.148368    44App    7.272888
      45App    7.322338    85Ap     7.329396    86Ap     7.357581
      46App    7.434255    87Ap     7.656702    88Ap     7.945094
      89Ap     7.958899    90Ap     8.803019    91Ap     9.332818
      92Ap    16.465629

    Final Occupation by Irrep:
             Ap   App
    DOCC [     7,    1 ]
    SOCC [     1,    1 ]

  @UHF Final Energy:  -150.87459212098707

   => Energetics <=

    Nuclear Repulsion Energy =             22.5014744710691765
    One-Electron Energy =                -252.7940632799351874
    Two-Electron Energy =                  79.4179966878789543
    Total Energy =                       -150.8745921209870744

  UHF NO Occupations:
  HONO-2 :    7 Ap 1.9970327
  HONO-1 :    8 Ap 1.0000000
  HONO-0 :    2App 1.0000000
  LUNO+0 :    9 Ap 0.0029673
  LUNO+1 :   10 Ap 0.0017232
  LUNO+2 :   11 Ap 0.0000024
  LUNO+3 :   12 Ap 0.0000014

Computation Completed

Properties will be evaluated at   0.000000,   0.000000,   0.000000 [a0]

Properties computed using the SCF density matrix

  Nuclear Dipole Moment: [e a0]
     X:    -2.2619      Y:     0.8309      Z:     0.0000

  Electronic Dipole Moment: [e a0]
     X:     2.8147      Y:    -0.2189      Z:     0.0000

  Dipole Moment: [e a0]
     X:     0.5529      Y:     0.6121      Z:     0.0000     Total:     0.8248

  Dipole Moment: [D]
     X:     1.4052      Y:     1.5557      Z:     0.0000     Total:     2.0964

*** tstop() called on c4-12.compute.lan at Tue Mar  9 14:40:36 2021
Module time:
	user time   =      57.47 seconds =       0.96 minutes
	system time =       0.81 seconds =       0.01 minutes
	total time  =          6 seconds =       0.10 minutes
Total time:
	user time   =      57.47 seconds =       0.96 minutes
	system time =       0.81 seconds =       0.01 minutes
	total time  =          6 seconds =       0.10 minutes
 MINTS: Wrapper to libmints.
   by Justin Turney

   Calculation information:
      Number of threads:                12
      Number of atoms:                   4
      Number of AO shells:              46
      Number of SO shells:              46
      Number of primitives:             82
      Number of atomic orbitals:       160
      Number of basis functions:       138

      Number of irreps:                  2
      Integral cutoff                 0.00e+00
      Number of functions per irrep: [  92   46 ]

 OEINTS: Overlap, kinetic, potential, dipole, and quadrupole integrals
         stored in file 35.

      Computing two-electron integrals...done
      Computed 22940621 non-zero two-electron integrals.
        Stored in file 33.

*** tstart() called on c4-12.compute.lan
*** at Tue Mar  9 14:40:39 2021

	Wfn Parameters:
	--------------------
	Wavefunction         = CCSD_T
	Number of irreps     = 2
	Number of MOs        = 138
	Number of active MOs = 136
	AO-Basis             = NONE
	Semicanonical        = false
	Reference            = UHF
	Print Level          = 1

	IRREP	# MOs	# FZDC	# DOCC	# SOCC	# VIRT	# FZVR
	-----	-----	------	------	------	------	------
	 Ap	   92	    2	    5	    1	    84	    0
	 App	   46	    0	    1	    1	    44	    0
	Transforming integrals...
	IWL integrals will be deleted.
	(OO|OO)...
	Presorting SO-basis two-electron integrals.
	Sorting File: SO Ints (nn|nn) nbuckets = 1
	Transforming the one-electron integrals and constructing Fock matrices
	Starting AA/AB first half-transformation.
	Sorting AA/AB half-transformed integrals.
	Starting BB first half-transformation.
	Sorting BB half-transformed integrals.
	First half integral transformation complete.
	Starting AA second half-transformation.
	Starting AB second half-transformation.
	Starting BB second half-transformation.
	Two-electron integral transformation complete.
	(OO|OV)...
	Starting AA second half-transformation.
	Starting AB second half-transformation.
	Starting BB second half-transformation.
	Two-electron integral transformation complete.
	(OO|VV)...
	Starting AA second half-transformation.
	Starting AB second half-transformation.
	Starting BB second half-transformation.
	Two-electron integral transformation complete.
	(OV|OO)...
	Starting AA/AB first half-transformation.
	Sorting AA/AB half-transformed integrals.
	Starting BB first half-transformation.
	Sorting BB half-transformed integrals.
	First half integral transformation complete.
	Starting AA second half-transformation.
	Starting AB second half-transformation.
	Starting BB second half-transformation.
	Two-electron integral transformation complete.
	(OV|OV)...
	Starting AA second half-transformation.
	Starting AB second half-transformation.
	Starting BB second half-transformation.
	Two-electron integral transformation complete.
	(OV|VV)...
	Starting AA second half-transformation.
	Starting AB second half-transformation.
	Starting BB second half-transformation.
	Two-electron integral transformation complete.
	(VV|OO)...
	Starting AA/AB first half-transformation.
	Sorting AA/AB half-transformed integrals.
	Starting BB first half-transformation.
	Sorting BB half-transformed integrals.
	First half integral transformation complete.
	Starting AA second half-transformation.
	Starting AB second half-transformation.
	Starting BB second half-transformation.
	Two-electron integral transformation complete.
	(VV|OV)...
	Starting AA second half-transformation.
	Starting AB second half-transformation.
	Starting BB second half-transformation.
	Two-electron integral transformation complete.
	(VV|VV)...
	Starting AA second half-transformation.
	Starting AB second half-transformation.
	Starting BB second half-transformation.
	Two-electron integral transformation complete.
	Frozen core energy     =   -125.69282827144700

	Size of irrep 0 of <AB|CD> integrals:     19.643 (MW) /    157.141 (MB)
	Size of irrep 1 of <AB|CD> integrals:     13.660 (MW) /    109.283 (MB)
	Total:                                    33.303 (MW) /    266.424 (MB)

	Size of irrep 0 of <ab|cd> integrals:     20.794 (MW) /    166.349 (MB)
	Size of irrep 1 of <ab|cd> integrals:     14.631 (MW) /    117.045 (MB)
	Total:                                    35.424 (MW) /    283.394 (MB)

	Size of irrep 0 of <Ab|Cd> integrals:     83.174 (MW) /    665.395 (MB)
	Size of irrep 1 of <Ab|Cd> integrals:     56.550 (MW) /    452.403 (MB)
	Total:                                   139.725 (MW) /   1117.798 (MB)

	Size of irrep 0 of <IA|BC> integrals:      5.323 (MW) /     42.586 (MB)
	Size of irrep 1 of <IA|BC> integrals:      3.193 (MW) /     25.547 (MB)
	Total:                                     8.517 (MW) /     68.133 (MB)

	Size of irrep 0 of <ia|bc> integrals:      4.348 (MW) /     34.780 (MB)
	Size of irrep 1 of <ia|bc> integrals:      2.372 (MW) /     18.972 (MB)
	Total:                                     6.719 (MW) /     53.752 (MB)

	Size of irrep 0 of <Ia|Bc> integrals:      5.472 (MW) /     43.776 (MB)
	Size of irrep 1 of <Ia|Bc> integrals:      3.309 (MW) /     26.470 (MB)
	Total:                                     8.781 (MW) /     70.246 (MB)

	Size of irrep 0 of <iA|bC> integrals:      4.232 (MW) /     33.853 (MB)
	Size of irrep 1 of <iA|bC> integrals:      2.286 (MW) /     18.289 (MB)
	Total:                                     6.518 (MW) /     52.142 (MB)

	Size of irrep 0 of tIjAb amplitudes:       0.292 (MW) /      2.335 (MB)
	Size of irrep 1 of tIjAb amplitudes:       0.120 (MW) /      0.963 (MB)
	Total:                                     0.412 (MW) /      3.297 (MB)

	Nuclear Rep. energy          =     22.50147447106918
	SCF energy                   =   -150.87459212098707
	One-electron energy          =    -83.91516412185860
	Two-electron (AA) energy     =     10.05619173265154
	Two-electron (BB) energy     =      5.35108930759903
	Two-electron (AB) energy     =     20.82464476099662
	Two-electron energy          =     36.23192580124719
	Reference energy             =   -150.87459212098923

*** tstop() called on c4-12.compute.lan at Tue Mar  9 14:41:10 2021
Module time:
	user time   =     105.61 seconds =       1.76 minutes
	system time =      16.67 seconds =       0.28 minutes
	total time  =         31 seconds =       0.52 minutes
Total time:
	user time   =     169.37 seconds =       2.82 minutes
	system time =      18.04 seconds =       0.30 minutes
	total time  =         40 seconds =       0.67 minutes
            **************************
            *                        *
            *        CCENERGY        *
            *                        *
            **************************

    Nuclear Rep. energy (wfn)     =   22.501474471069177
    SCF energy          (wfn)     = -150.874592120987074
    Reference energy    (file100) = -150.874592120989234

    Input parameters:
    -----------------
    Wave function   =     CCSD_T
    Reference wfn   =     UHF
    Brueckner       =     No
    Memory (Mbytes) =     4000.0
    Maxiter         =     50
    R_Convergence   =     1.0e-10
    E_Convergence   =     1.0e-10
    Restart         =     Yes
    DIIS            =     Yes
    AO Basis        =     NONE
    ABCD            =     NEW
    Cache Level     =     2
    Cache Type      =     LRU
    Print Level     =     1
    Num. of threads =     12
    # Amps to Print =     10
    Print MP2 Amps? =     No
    Analyze T2 Amps =     No
    Print Pair Ener =     No
    Local CC        =     No
    SCS-MP2         =     False
    SCSN-MP2        =     False
    SCS-CCSD        =     False

MP2 correlation energy -0.4163547450948845
                Solving CC Amplitude Equations
                ------------------------------
  Iter             Energy              RMS        T1Diag      D1Diag    New D1Diag    D2Diag
  ----     ---------------------    ---------   ----------  ----------  ----------   --------
     0        -0.416354745094884    0.000e+00    0.000000    0.000000    0.000000    0.000000
     1        -0.427114289714044    5.676e-02    0.010505    0.000000    0.000000    0.000000
     2        -0.435200659598215    1.687e-02    0.010989    0.000000    0.000000    0.000000
     3        -0.437317127844801    8.531e-03    0.012845    0.000000    0.000000    0.000000
     4        -0.437191840189739    2.526e-03    0.013205    0.000000    0.000000    0.000000
     5        -0.437178157196588    1.302e-03    0.013357    0.000000    0.000000    0.000000
     6        -0.437204841432225    5.088e-04    0.013376    0.000000    0.000000    0.000000
     7        -0.437209420642973    2.501e-04    0.013368    0.000000    0.000000    0.000000
     8        -0.437210060338436    8.655e-05    0.013363    0.000000    0.000000    0.000000
     9        -0.437211398896790    5.954e-05    0.013363    0.000000    0.000000    0.000000
    10        -0.437210018949656    4.991e-05    0.013363    0.000000    0.000000    0.000000
    11        -0.437210115531456    4.764e-05    0.013364    0.000000    0.000000    0.000000
    12        -0.437209934862449    4.639e-05    0.013365    0.000000    0.000000    0.000000
    13        -0.437209892679558    4.558e-05    0.013367    0.000000    0.000000    0.000000
    14        -0.437210617140707    4.443e-05    0.013375    0.000000    0.000000    0.000000
    15        -0.437210850139964    4.104e-05    0.013404    0.000000    0.000000    0.000000
    16        -0.437210682090665    3.143e-05    0.013503    0.000000    0.000000    0.000000
    17        -0.437210466850689    1.683e-05    0.013571    0.000000    0.000000    0.000000
    18        -0.437210352854087    7.922e-06    0.013594    0.000000    0.000000    0.000000
    19        -0.437210592074310    3.438e-06    0.013600    0.000000    0.000000    0.000000
    20        -0.437210704397908    1.528e-06    0.013601    0.000000    0.000000    0.000000
    21        -0.437210709720788    5.825e-07    0.013601    0.000000    0.000000    0.000000
    22        -0.437210709823728    2.390e-07    0.013601    0.000000    0.000000    0.000000
    23        -0.437210709570149    1.136e-07    0.013601    0.000000    0.000000    0.000000
    24        -0.437210709248584    4.268e-08    0.013601    0.000000    0.000000    0.000000
    25        -0.437210710078435    2.128e-08    0.013601    0.000000    0.000000    0.000000
    26        -0.437210710439626    1.186e-08    0.013601    0.000000    0.000000    0.000000
    27        -0.437210710522703    9.668e-09    0.013601    0.000000    0.000000    0.000000
    28        -0.437210710517980    9.071e-09    0.013601    0.000000    0.000000    0.000000
    29        -0.437210710462711    8.614e-09    0.013601    0.000000    0.000000    0.000000
    30        -0.437210710351158    8.038e-09    0.013601    0.000000    0.000000    0.000000
    31        -0.437210710390730    6.601e-09    0.013601    0.000000    0.000000    0.000000
    32        -0.437210710532579    3.983e-09    0.013601    0.000000    0.000000    0.000000
    33        -0.437210710571964    1.710e-09    0.013601    0.000000    0.000000    0.000000
    34        -0.437210710590184    7.483e-10    0.013601    0.000000    0.000000    0.000000
    35        -0.437210710591981    3.334e-10    0.013601    0.000000    0.000000    0.000000
    36        -0.437210710590068    1.316e-10    0.013601    0.000000    0.000000    0.000000

      * MP2 total energy                      = -151.290946866084113
      * CCSD total energy                     = -151.311802831578007
      * CCSD(T) total energy                     = -151.324124227629881
*** Psi4 exiting successfully. Buy a developer a beer!
