                               Psi4 1.3.2 release

  ==> Input File <==

--------------------------------------------------------------------------
memory 4 GB

molecule  {
0 3
O    0.000000000000    0.000000000000    1.270101053562
H    0.000000000000   -0.759829563800    1.857701445843
H   -0.000000000000    0.759829563800    1.857701445843
O    0.000000000000    0.000000000000   -1.504205212797
}
set {
basis aug-cc-pvtz
reference uhf
e_convergence 10
scf_type pk
freeze_core true
}

set ccenergy {
e_convergence 10
r_convergence 10
}

e = energy('ccsd(t)')

print_out('Stephenergy {}'.format(e))

--------------------------------------------------------------------------

    Molecular point group: c2v

    Geometry (in Angstrom), charge = 0, multiplicity = 3:

       Center              X                  Y                   Z               Mass
    ------------   -----------------  -----------------  -----------------  -----------------
         O            0.000000000000     0.000000000000     1.270101053562    15.994914619570
         H            0.000000000000    -0.759829563800     1.857701445843     1.007825032230
         H           -0.000000000000     0.759829563800     1.857701445843     1.007825032230
         O            0.000000000000     0.000000000000    -1.504205212797    15.994914619570

  Charge       = 0
  Multiplicity = 3
  Basis Set: AUG-CC-PVTZ
    Blend: AUG-CC-PVTZ

    Orbital Energies [Eh]
    ---------------------

    Alpha Occupied:

       1A1   -20.684530     2A1   -20.570937     3A1    -1.393953
       4A1    -1.355715     1B2    -0.719636     5A1    -0.688203
       1B1    -0.685253     6A1    -0.586332     2B2    -0.586263
       2B1    -0.514012

    Alpha Virtual:

       7A1     0.029580     3B2     0.047668     8A1     0.118574
       3B1     0.153995     9A1     0.159537     4B2     0.180297
       5B2     0.186906     4B1     0.192715    10A1     0.197986
       1A2     0.263656     6B2     0.264197    11A1     0.264772
      12A1     0.314406     5B1     0.326958    13A1     0.376081
       7B2     0.380320    14A1     0.450137     8B2     0.464540
       9B2     0.600115     6B1     0.643488    15A1     0.647359
       2A2     0.658170    16A1     0.666629    17A1     0.696168
       3A2     0.721528    10B2     0.722635     7B1     0.767648
      18A1     0.792979    19A1     0.818686     8B1     0.837761
      20A1     0.861072     9B1     0.901270    11B2     0.918734
       4A2     0.924791    12B2     0.946277    13B2     0.979816
      21A1     0.990255    10B1     1.012683    22A1     1.046701
      14B2     1.051647    11B1     1.122335     5A2     1.176813
      23A1     1.191810    15B2     1.198780    16B2     1.326842
      24A1     1.336013    25A1     1.444070     6A2     1.507685
      12B1     1.595050    26A1     1.667053    27A1     1.811620
      17B2     1.821527    18B2     1.978487    28A1     2.040784
      13B1     2.047795    19B2     2.054058     7A2     2.056778
      14B1     2.058931    29A1     2.079335    30A1     2.114891
       8A2     2.118694    20B2     2.135355    31A1     2.141163
      15B1     2.145236    32A1     2.252063    21B2     2.267348
      16B1     2.303325     9A2     2.312131    17B1     2.434176
      33A1     2.470192    22B2     2.481466    34A1     2.486544
      35A1     2.696086    18B1     2.715927    23B2     2.721031
      36A1     2.839920    24B2     2.863407    10A2     2.880638
      25B2     3.692250    37A1     3.755953    11A2     4.013406
      19B1     4.080630    20B1     4.099417    38A1     4.141930
      26B2     4.183429    27B2     4.281794    21B1     4.291680
      39A1     4.351537    12A2     4.382239    40A1     4.428704
      22B1     4.451824    28B2     4.515101    41A1     4.789052
      29B2     4.841334    30B2     5.141683    13A2     5.147445
      31B2     5.251632    42A1     5.343817    23B1     5.518437
      43A1     5.687713    44A1     6.198420    24B1     6.388998
      45A1     6.408965    14A2     6.410146    32B2     6.423588
      25B1     6.435507    33B2     6.485886    46A1     6.536105
      34B2     6.581885    26B1     6.716399    27B1     6.902317
      47A1     6.905670    15A2     6.924508    48A1     6.939614
      35B2     6.985610    49A1     7.046426    28B1     7.136357
      29B1     7.278825    16A2     7.307719    36B2     7.314061
      17A2     7.353082    50A1     7.437126    51A1     7.545617
      52A1     7.912696    37B2     7.917559    38B2     8.808757
      53A1     8.860837    54A1    15.804701

    Beta Occupied:

       1A1   -20.605664     2A1   -20.570474     3A1    -1.355029
       4A1    -1.051145     1B2    -0.719307     5A1    -0.588056
       1B1    -0.513351     2B2    -0.495682

    Beta Virtual:

       6A1     0.029421     3B2     0.047749     2B1     0.086496
       7A1     0.091924     8A1     0.140941     9A1     0.167055
       3B1     0.170546     4B2     0.180915     5B2     0.190508
      10A1     0.225548     4B1     0.253277     1A2     0.263659
       6B2     0.264643    11A1     0.288398    12A1     0.316836
       5B1     0.328257     7B2     0.380493    13A1     0.386381
      14A1     0.451204     8B2     0.464735     9B2     0.601739
      15A1     0.660446     6B1     0.667280     2A2     0.672594
      16A1     0.673704    17A1     0.713404     3A2     0.721988
      10B2     0.734843     7B1     0.778939    18A1     0.806325
       8B1     0.846962    19A1     0.850920     4A2     0.925180
      20A1     0.927941    11B2     0.936454    12B2     0.953366
      13B2     0.983579     9B1     0.986670    21A1     0.997458
      14B2     1.052741    22A1     1.052872    10B1     1.060423
      11B1     1.138372     5A2     1.177008    23A1     1.193303
      15B2     1.201484    16B2     1.329249    24A1     1.392615
      25A1     1.483506     6A2     1.508102    12B1     1.597018
      26A1     1.697132    27A1     1.816654    17B2     1.821858
      18B2     1.979913    28A1     2.070370    13B1     2.070811
      19B2     2.071477     7A2     2.081418    29A1     2.099763
      14B1     2.100400    30A1     2.156139    20B2     2.181092
       8A2     2.201916    31A1     2.207758    15B1     2.258236
      32A1     2.308848     9A2     2.312262    21B2     2.319110
      16B1     2.319127    17B1     2.442062    33A1     2.483336
      22B2     2.484321    34A1     2.514973    35A1     2.703602
      18B1     2.717628    23B2     2.721937    36A1     2.851945
      24B2     2.863582    10A2     2.880672    25B2     3.693127
      37A1     3.756090    11A2     4.013434    19B1     4.083073
      38A1     4.174512    26B2     4.219086    20B1     4.260161
      27B2     4.292610    21B1     4.295918    12A2     4.382345
      39A1     4.427329    22B1     4.456950    40A1     4.468153
      28B2     4.515180    41A1     4.799834    29B2     4.841489
      30B2     5.141866    13A2     5.147519    31B2     5.252038
      42A1     5.344455    23B1     5.518547    43A1     5.692252
      44A1     6.200078    24B1     6.485609    14A2     6.486976
      32B2     6.487752    45A1     6.493137    25B1     6.499292
      33B2     6.521616    46A1     6.607796    34B2     6.609697
      26B1     6.723255    47A1     6.955028    15A2     7.038062
      48A1     7.041951    27B1     7.084909    35B2     7.097475
      28B1     7.136748    49A1     7.173857    29B1     7.282934
      16A2     7.307994    36B2     7.314246    17A2     7.353485
      50A1     7.439904    51A1     7.546666    52A1     7.913254
      37B2     7.917906    38B2     8.809128    53A1     8.940259
      54A1    15.805019

    Final Occupation by Irrep:
             A1    A2    B1    B2
    DOCC [     5,    0,    1,    2 ]
    SOCC [     1,    0,    1,    0 ]

  @UHF Final Energy:  -150.87362032562774

   => Energetics <=

    Nuclear Repulsion Energy =             23.8269899238519898
    One-Electron Energy =                -255.7176780406233547
    Two-Electron Energy =                  81.0170677911436172
    Total Energy =                       -150.8736203256277690

  UHF NO Occupations:
  HONO-2 :    5 A1 1.9970492
  HONO-1 :    6 A1 1.0000000
  HONO-0 :    2 B1 1.0000000
  LUNO+0 :    7 A1 0.0029508
  LUNO+1 :    3 B2 0.0017951
  LUNO+2 :    8 A1 0.0000217
  LUNO+3 :    9 A1 0.0000024

Computation Completed

Properties will be evaluated at   0.000000,   0.000000,   0.000000 [a0]

Properties computed using the SCF density matrix

  Nuclear Dipole Moment: [e a0]
     X:     0.0000      Y:     0.0000      Z:     3.4820

  Electronic Dipole Moment: [e a0]
     X:     0.0000      Y:     0.0000      Z:    -2.6470

  Dipole Moment: [e a0]
     X:     0.0000      Y:     0.0000      Z:     0.8350     Total:     0.8350

  Dipole Moment: [D]
     X:     0.0000      Y:     0.0000      Z:     2.1223     Total:     2.1223

*** tstop() called on c5-13.compute.lan at Mon Mar  8 17:41:07 2021
Module time:
	user time   =      44.02 seconds =       0.73 minutes
	system time =       0.90 seconds =       0.02 minutes
	total time  =         22 seconds =       0.37 minutes
Total time:
	user time   =      44.02 seconds =       0.73 minutes
	system time =       0.90 seconds =       0.02 minutes
	total time  =         22 seconds =       0.37 minutes
 MINTS: Wrapper to libmints.
   by Justin Turney

   Calculation information:
      Number of threads:                12
      Number of atoms:                   4
      Number of AO shells:              46
      Number of SO shells:              37
      Number of primitives:             82
      Number of atomic orbitals:       160
      Number of basis functions:       138

      Number of irreps:                  4
      Integral cutoff                 0.00e+00
      Number of functions per irrep: [  54   17   29   38 ]

 OEINTS: Overlap, kinetic, potential, dipole, and quadrupole integrals
         stored in file 35.

      Computing two-electron integrals...done
      Computed 11523314 non-zero two-electron integrals.
        Stored in file 33.

*** tstart() called on c5-13.compute.lan
*** at Mon Mar  8 17:41:10 2021

	Wfn Parameters:
	--------------------
	Wavefunction         = CCSD_T
	Number of irreps     = 4
	Number of MOs        = 138
	Number of active MOs = 136
	AO-Basis             = NONE
	Semicanonical        = false
	Reference            = UHF
	Print Level          = 1

	IRREP	# MOs	# FZDC	# DOCC	# SOCC	# VIRT	# FZVR
	-----	-----	------	------	------	------	------
	 A1	   54	    2	    3	    1	    48	    0
	 A2	   17	    0	    0	    0	    17	    0
	 B1	   29	    0	    1	    1	    27	    0
	 B2	   38	    0	    2	    0	    36	    0
	Transforming integrals...
	IWL integrals will be deleted.
	(OO|OO)...
	Presorting SO-basis two-electron integrals.
	Sorting File: SO Ints (nn|nn) nbuckets = 1
	Transforming the one-electron integrals and constructing Fock matrices
	Starting AA/AB first half-transformation.
	Sorting AA/AB half-transformed integrals.
	Starting BB first half-transformation.
	Sorting BB half-transformed integrals.
	First half integral transformation complete.
	Starting AA second half-transformation.
	Starting AB second half-transformation.
	Starting BB second half-transformation.
	Two-electron integral transformation complete.
	(OO|OV)...
	Starting AA second half-transformation.
	Starting AB second half-transformation.
	Starting BB second half-transformation.
	Two-electron integral transformation complete.
	(OO|VV)...
	Starting AA second half-transformation.
	Starting AB second half-transformation.
	Starting BB second half-transformation.
	Two-electron integral transformation complete.
	(OV|OO)...
	Starting AA/AB first half-transformation.
	Sorting AA/AB half-transformed integrals.
	Starting BB first half-transformation.
	Sorting BB half-transformed integrals.
	First half integral transformation complete.
	Starting AA second half-transformation.
	Starting AB second half-transformation.
	Starting BB second half-transformation.
	Two-electron integral transformation complete.
	(OV|OV)...
	Starting AA second half-transformation.
	Starting AB second half-transformation.
	Starting BB second half-transformation.
	Two-electron integral transformation complete.
	(OV|VV)...
	Starting AA second half-transformation.
	Starting AB second half-transformation.
	Starting BB second half-transformation.
	Two-electron integral transformation complete.
	(VV|OO)...
	Starting AA/AB first half-transformation.
	Sorting AA/AB half-transformed integrals.
	Starting BB first half-transformation.
	Sorting BB half-transformed integrals.
	First half integral transformation complete.
	Starting AA second half-transformation.
	Starting AB second half-transformation.
	Starting BB second half-transformation.
	Two-electron integral transformation complete.
	(VV|OV)...
	Starting AA second half-transformation.
	Starting AB second half-transformation.
	Starting BB second half-transformation.
	Two-electron integral transformation complete.
	(VV|VV)...
	Starting AA second half-transformation.
	Starting AB second half-transformation.
	Starting BB second half-transformation.
	Two-electron integral transformation complete.
	Frozen core energy     =   -126.36936098076339

	Size of irrep 0 of <AB|CD> integrals:      5.040 (MW) /     40.320 (MB)
	Size of irrep 1 of <AB|CD> integrals:      3.197 (MW) /     25.576 (MB)
	Size of irrep 2 of <AB|CD> integrals:      3.640 (MW) /     29.124 (MB)
	Size of irrep 3 of <AB|CD> integrals:      4.783 (MW) /     38.264 (MB)
	Total:                                    16.660 (MW) /    133.283 (MB)

	Size of irrep 0 of <ab|cd> integrals:      5.382 (MW) /     43.059 (MB)
	Size of irrep 1 of <ab|cd> integrals:      3.389 (MW) /     27.114 (MB)
	Size of irrep 2 of <ab|cd> integrals:      3.936 (MW) /     31.490 (MB)
	Size of irrep 3 of <ab|cd> integrals:      5.018 (MW) /     40.141 (MB)
	Total:                                    17.726 (MW) /    141.804 (MB)

	Size of irrep 0 of <Ab|Cd> integrals:     22.024 (MW) /    176.194 (MB)
	Size of irrep 1 of <Ab|Cd> integrals:     13.170 (MW) /    105.357 (MB)
	Size of irrep 2 of <Ab|Cd> integrals:     15.140 (MW) /    121.119 (MB)
	Size of irrep 3 of <Ab|Cd> integrals:     19.598 (MW) /    156.787 (MB)
	Total:                                    69.932 (MW) /    559.457 (MB)

	Size of irrep 0 of <IA|BC> integrals:      1.469 (MW) /     11.748 (MB)
	Size of irrep 1 of <IA|BC> integrals:      0.694 (MW) /      5.550 (MB)
	Size of irrep 2 of <IA|BC> integrals:      0.908 (MW) /      7.266 (MB)
	Size of irrep 3 of <IA|BC> integrals:      1.198 (MW) /      9.588 (MB)
	Total:                                     4.269 (MW) /     34.152 (MB)

	Size of irrep 0 of <ia|bc> integrals:      1.178 (MW) /      9.426 (MB)
	Size of irrep 1 of <ia|bc> integrals:      0.527 (MW) /      4.212 (MB)
	Size of irrep 2 of <ia|bc> integrals:      0.663 (MW) /      5.301 (MB)
	Size of irrep 3 of <ia|bc> integrals:      0.999 (MW) /      7.992 (MB)
	Total:                                     3.366 (MW) /     26.931 (MB)

	Size of irrep 0 of <Ia|Bc> integrals:      1.521 (MW) /     12.164 (MB)
	Size of irrep 1 of <Ia|Bc> integrals:      0.711 (MW) /      5.690 (MB)
	Size of irrep 2 of <Ia|Bc> integrals:      0.949 (MW) /      7.595 (MB)
	Size of irrep 3 of <Ia|Bc> integrals:      1.222 (MW) /      9.775 (MB)
	Total:                                     4.403 (MW) /     35.225 (MB)

	Size of irrep 0 of <iA|bC> integrals:      1.140 (MW) /      9.123 (MB)
	Size of irrep 1 of <iA|bC> integrals:      0.512 (MW) /      4.094 (MB)
	Size of irrep 2 of <iA|bC> integrals:      0.634 (MW) /      5.074 (MB)
	Size of irrep 3 of <iA|bC> integrals:      0.978 (MW) /      7.827 (MB)
	Total:                                     3.265 (MW) /     26.118 (MB)

	Size of irrep 0 of tIjAb amplitudes:       0.084 (MW) /      0.676 (MB)
	Size of irrep 1 of tIjAb amplitudes:       0.022 (MW) /      0.174 (MB)
	Size of irrep 2 of tIjAb amplitudes:       0.039 (MW) /      0.311 (MB)
	Size of irrep 3 of tIjAb amplitudes:       0.062 (MW) /      0.496 (MB)
	Total:                                     0.207 (MW) /      1.657 (MB)

	Nuclear Rep. energy          =     23.82698992385199
	SCF energy                   =   -150.87362032562774
	One-electron energy          =    -85.41055973358925
	Two-electron (AA) energy     =     10.36312379254773
	Two-electron (BB) energy     =      5.46696315353758
	Two-electron (AB) energy     =     21.24922351878672
	Two-electron energy          =     37.07931046487204
	Reference energy             =   -150.87362032562862

*** tstop() called on c5-13.compute.lan at Mon Mar  8 17:41:31 2021
Module time:
	user time   =      70.62 seconds =       1.18 minutes
	system time =      10.23 seconds =       0.17 minutes
	total time  =         21 seconds =       0.35 minutes
Total time:
	user time   =     119.70 seconds =       2.00 minutes
	system time =      11.50 seconds =       0.19 minutes
	total time  =         46 seconds =       0.77 minutes
            **************************
            *                        *
            *        CCENERGY        *
            *                        *
            **************************

    Nuclear Rep. energy (wfn)     =   23.826989923851990
    SCF energy          (wfn)     = -150.873620325627741
    Reference energy    (file100) = -150.873620325628622

    Input parameters:
    -----------------
    Wave function   =     CCSD_T
    Reference wfn   =     UHF
    Brueckner       =     No
    Memory (Mbytes) =     4000.0
    Maxiter         =     50
    R_Convergence   =     1.0e-10
    E_Convergence   =     1.0e-10
    Restart         =     Yes
    DIIS            =     Yes
    AO Basis        =     NONE
    ABCD            =     NEW
    Cache Level     =     2
    Cache Type      =     LRU
    Print Level     =     1
    Num. of threads =     12
    # Amps to Print =     10
    Print MP2 Amps? =     No
    Analyze T2 Amps =     No
    Print Pair Ener =     No
    Local CC        =     No
    SCS-MP2         =     False
    SCSN-MP2        =     False
    SCS-CCSD        =     False

MP2 correlation energy -0.4161753278910125
                Solving CC Amplitude Equations
                ------------------------------
  Iter             Energy              RMS        T1Diag      D1Diag    New D1Diag    D2Diag
  ----     ---------------------    ---------   ----------  ----------  ----------   --------
     0        -0.416175327891013    0.000e+00    0.000000    0.000000    0.000000    0.000000
     1        -0.426984108131663    5.691e-02    0.010566    0.000000    0.000000    0.000000
     2        -0.435069479279125    1.700e-02    0.011062    0.000000    0.000000    0.000000
     3        -0.437216162046033    8.760e-03    0.012980    0.000000    0.000000    0.000000
     4        -0.437089804152799    2.679e-03    0.013389    0.000000    0.000000    0.000000
     5        -0.437080333886057    1.394e-03    0.013582    0.000000    0.000000    0.000000
     6        -0.437109451671972    5.291e-04    0.013608    0.000000    0.000000    0.000000
     7        -0.437112426837323    2.144e-04    0.013602    0.000000    0.000000    0.000000
     8        -0.437113356832589    6.669e-05    0.013597    0.000000    0.000000    0.000000
     9        -0.437114043295767    2.382e-05    0.013596    0.000000    0.000000    0.000000
    10        -0.437113143913248    9.211e-06    0.013596    0.000000    0.000000    0.000000
    11        -0.437113308675001    3.995e-06    0.013596    0.000000    0.000000    0.000000
    12        -0.437113269040143    1.443e-06    0.013596    0.000000    0.000000    0.000000
    13        -0.437113276900407    7.294e-07    0.013596    0.000000    0.000000    0.000000
    14        -0.437113299457795    3.041e-07    0.013596    0.000000    0.000000    0.000000
    15        -0.437113301194191    1.108e-07    0.013596    0.000000    0.000000    0.000000
    16        -0.437113301769454    4.961e-08    0.013596    0.000000    0.000000    0.000000
    17        -0.437113302348627    1.909e-08    0.013596    0.000000    0.000000    0.000000
    18        -0.437113302207643    9.903e-09    0.013596    0.000000    0.000000    0.000000

      * MP2 total energy                      = -151.289795653519633
      * CCSD total energy                     = -151.310733627593436
      * CCSD(T) total energy                     = -151.323014758800554
*** Psi4 exiting successfully. Buy a developer a beer!
