                               Psi4 1.3.2 release

  ==> Input File <==

--------------------------------------------------------------------------
memory 4 GB

molecule  {
0 3
O   -1.504744251557   -0.001191842846    0.000000000000
H   -0.553951593525    0.156621702098    0.000000000000
H   -1.896591262807    0.877849706617    0.000000000000
O    1.659150729609   -0.063989260375    0.000000000000
}
set {
basis aug-cc-pvtz
reference uhf
e_convergence 10
scf_type pk
freeze_core true
}

set ccenergy {
e_convergence 10
r_convergence 10
}

e = energy('ccsd(t)')

print_out('Stephenergy {}'.format(e))

--------------------------------------------------------------------------

    Molecular point group: cs

    Geometry (in Angstrom), charge = 0, multiplicity = 3:

       Center              X                  Y                   Z               Mass
    ------------   -----------------  -----------------  -----------------  -----------------
         O           -1.504744251557    -0.001191842846     0.000000000000    15.994914619570
         H           -0.553951593525     0.156621702098     0.000000000000     1.007825032230
         H           -1.896591262807     0.877849706617     0.000000000000     1.007825032230
         O            1.659150729609    -0.063989260375     0.000000000000    15.994914619570

  Charge       = 0
  Multiplicity = 3
  Basis Set: AUG-CC-PVTZ
    Blend: AUG-CC-PVTZ

    Orbital Energies [Eh]
    ---------------------

    Alpha Occupied:

       1Ap   -20.733055     2Ap   -20.558898     3Ap    -1.442382
       4Ap    -1.342357     5Ap    -0.733151     1App   -0.732778
       6Ap    -0.709886     7Ap    -0.634421     8Ap    -0.574602
       2App   -0.501793

    Alpha Virtual:

       9Ap     0.034200    10Ap     0.053475    11Ap     0.128200
       3App    0.132946    12Ap     0.148130    13Ap     0.160735
      14Ap     0.183921     4App    0.186833    15Ap     0.214112
      16Ap     0.241931    17Ap     0.264208     5App    0.286443
      18Ap     0.303964     6App    0.320639    19Ap     0.364154
      20Ap     0.406228    21Ap     0.460276    22Ap     0.568687
       7App    0.602624    23Ap     0.608680    24Ap     0.627001
      25Ap     0.681797     8App    0.709332    26Ap     0.714756
       9App    0.736699    10App    0.748778    27Ap     0.750642
      28Ap     0.811436    11App    0.826018    29Ap     0.836832
      12App    0.890813    30Ap     0.891820    31Ap     0.922838
      32Ap     0.944961    13App    0.947831    33Ap     0.951195
      14App    0.971496    34Ap     0.978771    35Ap     1.042913
      36Ap     1.135915    15App    1.153356    37Ap     1.169705
      38Ap     1.184921    39Ap     1.260757    16App    1.294871
      40Ap     1.316271    17App    1.527008    41Ap     1.587780
      18App    1.597684    42Ap     1.715623    43Ap     1.809146
      44Ap     1.841765    45Ap     1.977259    19App    1.977741
      46Ap     1.978063    20App    2.013204    47Ap     2.017951
      21App    2.048361    48Ap     2.060621    22App    2.122588
      49Ap     2.152589    50Ap     2.175701    23App    2.212498
      24App    2.302651    51Ap     2.310794    52Ap     2.338568
      53Ap     2.414752    25App    2.441002    54Ap     2.458604
      55Ap     2.490412    26App    2.526262    56Ap     2.628753
      57Ap     2.708907    27App    2.727690    58Ap     2.736494
      59Ap     2.859899    60Ap     2.933213    28App    2.942934
      61Ap     3.694395    62Ap     3.890514    29App    4.034866
      30App    4.062680    63Ap     4.074240    31App    4.176906
      64Ap     4.208722    65Ap     4.263109    32App    4.302716
      33App    4.390615    66Ap     4.408970    34App    4.428748
      67Ap     4.445163    68Ap     4.601202    69Ap     4.777104
      70Ap     4.955023    35App    5.153139    71Ap     5.167752
      72Ap     5.297751    73Ap     5.385956    36App    5.521977
      74Ap     5.690319    75Ap     6.186438    37App    6.312378
      76Ap     6.312409    38App    6.375454    77Ap     6.378162
      39App    6.518079    78Ap     6.519907    79Ap     6.559624
      80Ap     6.636940    40App    6.735477    81Ap     6.814407
      41App    6.820016    82Ap     6.918616    42App    6.936777
      83Ap     6.960975    84Ap     7.050855    43App    7.147374
      44App    7.271085    45App    7.322903    85Ap     7.325009
      86Ap     7.362783    46App    7.435158    87Ap     7.644731
      88Ap     7.944781    89Ap     7.957168    90Ap     8.804309
      91Ap     9.514043    92Ap    16.269877

    Beta Occupied:

       1Ap   -20.654269     2Ap   -20.559028     3Ap    -1.342931
       4Ap    -1.099914     5Ap    -0.709077     6Ap    -0.579599
       7Ap    -0.541170     1App   -0.501838

    Beta Virtual:

       8Ap     0.034359     2App    0.049378     9Ap     0.049622
      10Ap     0.055178    11Ap     0.143825    12Ap     0.152973
       3App    0.161253    13Ap     0.178024    14Ap     0.207804
      15Ap     0.225516     4App    0.227209    16Ap     0.250634
      17Ap     0.265459     5App    0.286650    18Ap     0.306104
       6App    0.324369    19Ap     0.368048    20Ap     0.417093
      21Ap     0.461549    22Ap     0.572257    23Ap     0.627785
       7App    0.635020    24Ap     0.640404    25Ap     0.686593
      26Ap     0.715423     8App    0.721400     9App    0.739821
      10App    0.750498    27Ap     0.767079    28Ap     0.817833
      29Ap     0.867755    11App    0.868979    30Ap     0.919897
      12App    0.941673    31Ap     0.941774    13App    0.949905
      32Ap     0.952567    33Ap     0.970217    34Ap     1.017457
      14App    1.020112    35Ap     1.045160    15App    1.156484
      36Ap     1.163613    37Ap     1.173002    38Ap     1.216180
      39Ap     1.263993    16App    1.305476    40Ap     1.324908
      17App    1.527720    41Ap     1.590001    18App    1.599121
      42Ap     1.741988    43Ap     1.814371    44Ap     1.852563
      45Ap     1.985498    46Ap     2.015705    19App    2.015716
      20App    2.053680    47Ap     2.065389    21App    2.170758
      48Ap     2.176036    22App    2.179603    49Ap     2.193701
      50Ap     2.244464    23App    2.249701    24App    2.306071
      51Ap     2.316293    52Ap     2.361303    53Ap     2.419149
      25App    2.443719    54Ap     2.459444    55Ap     2.496716
      26App    2.534730    56Ap     2.635942    57Ap     2.726068
      27App    2.728996    58Ap     2.739721    59Ap     2.861732
      60Ap     2.937636    28App    2.943564    61Ap     3.695083
      62Ap     3.892870    29App    4.037725    30App    4.145579
      63Ap     4.193959    64Ap     4.242924    31App    4.262451
      65Ap     4.274848    32App    4.302768    33App    4.390684
      66Ap     4.412474    34App    4.429418    67Ap     4.489579
      68Ap     4.603786    69Ap     4.778758    70Ap     4.957035
      35App    5.153125    71Ap     5.168048    72Ap     5.297988
      73Ap     5.387175    36App    5.522036    74Ap     5.690661
      75Ap     6.187690    76Ap     6.421231    37App    6.421235
      38App    6.450652    77Ap     6.453395    78Ap     6.535265
      39App    6.571949    79Ap     6.600133    80Ap     6.681874
      40App    6.741406    81Ap     6.920268    41App    7.005134
      82Ap     7.006686    42App    7.045912    83Ap     7.068143
      84Ap     7.130635    43App    7.149973    44App    7.271318
      45App    7.323629    85Ap     7.325323    86Ap     7.363560
      46App    7.435570    87Ap     7.645586    88Ap     7.945654
      89Ap     7.957649    90Ap     8.805827    91Ap     9.589085
      92Ap    16.270147

    Final Occupation by Irrep:
             Ap   App
    DOCC [     7,    1 ]
    SOCC [     1,    1 ]

  @UHF Final Energy:  -150.87438835291610

   => Energetics <=

    Nuclear Repulsion Energy =             22.8948991538400293
    One-Electron Energy =                -253.5874244950813932
    Two-Electron Energy =                  79.8181369883252785
    Total Energy =                       -150.8743883529160996

  UHF NO Occupations:
  HONO-2 :    7 Ap 1.9970281
  HONO-1 :    8 Ap 1.0000000
  HONO-0 :    2App 1.0000000
  LUNO+0 :    9 Ap 0.0029719
  LUNO+1 :   10 Ap 0.0017164
  LUNO+2 :   11 Ap 0.0000024
  LUNO+3 :   12 Ap 0.0000017

Computation Completed

Properties will be evaluated at   0.000000,   0.000000,   0.000000 [a0]

Properties computed using the SCF density matrix

  Nuclear Dipole Moment: [e a0]
     X:    -2.2966      Y:     0.9695      Z:     0.0000

  Electronic Dipole Moment: [e a0]
     X:     2.7586      Y:    -0.2943      Z:     0.0000

  Dipole Moment: [e a0]
     X:     0.4621      Y:     0.6752      Z:     0.0000     Total:     0.8182

  Dipole Moment: [D]
     X:     1.1745      Y:     1.7162      Z:     0.0000     Total:     2.0796

*** tstop() called on d1-14.compute.lan at Wed Mar 10 10:57:48 2021
Module time:
	user time   =      57.38 seconds =       0.96 minutes
	system time =       2.83 seconds =       0.05 minutes
	total time  =          6 seconds =       0.10 minutes
Total time:
	user time   =      57.38 seconds =       0.96 minutes
	system time =       2.83 seconds =       0.05 minutes
	total time  =          6 seconds =       0.10 minutes
 MINTS: Wrapper to libmints.
   by Justin Turney

   Calculation information:
      Number of threads:                12
      Number of atoms:                   4
      Number of AO shells:              46
      Number of SO shells:              46
      Number of primitives:             82
      Number of atomic orbitals:       160
      Number of basis functions:       138

      Number of irreps:                  2
      Integral cutoff                 0.00e+00
      Number of functions per irrep: [  92   46 ]

 OEINTS: Overlap, kinetic, potential, dipole, and quadrupole integrals
         stored in file 35.

      Computing two-electron integrals...done
      Computed 22924222 non-zero two-electron integrals.
        Stored in file 33.

*** tstart() called on d1-14.compute.lan
*** at Wed Mar 10 10:57:52 2021

	Wfn Parameters:
	--------------------
	Wavefunction         = CCSD_T
	Number of irreps     = 2
	Number of MOs        = 138
	Number of active MOs = 136
	AO-Basis             = NONE
	Semicanonical        = false
	Reference            = UHF
	Print Level          = 1

	IRREP	# MOs	# FZDC	# DOCC	# SOCC	# VIRT	# FZVR
	-----	-----	------	------	------	------	------
	 Ap	   92	    2	    5	    1	    84	    0
	 App	   46	    0	    1	    1	    44	    0
	Transforming integrals...
	IWL integrals will be deleted.
	(OO|OO)...
	Presorting SO-basis two-electron integrals.
	Sorting File: SO Ints (nn|nn) nbuckets = 1
	Transforming the one-electron integrals and constructing Fock matrices
	Starting AA/AB first half-transformation.
	Sorting AA/AB half-transformed integrals.
	Starting BB first half-transformation.
	Sorting BB half-transformed integrals.
	First half integral transformation complete.
	Starting AA second half-transformation.
	Starting AB second half-transformation.
	Starting BB second half-transformation.
	Two-electron integral transformation complete.
	(OO|OV)...
	Starting AA second half-transformation.
	Starting AB second half-transformation.
	Starting BB second half-transformation.
	Two-electron integral transformation complete.
	(OO|VV)...
	Starting AA second half-transformation.
	Starting AB second half-transformation.
	Starting BB second half-transformation.
	Two-electron integral transformation complete.
	(OV|OO)...
	Starting AA/AB first half-transformation.
	Sorting AA/AB half-transformed integrals.
	Starting BB first half-transformation.
	Sorting BB half-transformed integrals.
	First half integral transformation complete.
	Starting AA second half-transformation.
	Starting AB second half-transformation.
	Starting BB second half-transformation.
	Two-electron integral transformation complete.
	(OV|OV)...
	Starting AA second half-transformation.
	Starting AB second half-transformation.
	Starting BB second half-transformation.
	Two-electron integral transformation complete.
	(OV|VV)...
	Starting AA second half-transformation.
	Starting AB second half-transformation.
	Starting BB second half-transformation.
	Two-electron integral transformation complete.
	(VV|OO)...
	Starting AA/AB first half-transformation.
	Sorting AA/AB half-transformed integrals.
	Starting BB first half-transformation.
	Sorting BB half-transformed integrals.
	First half integral transformation complete.
	Starting AA second half-transformation.
	Starting AB second half-transformation.
	Starting BB second half-transformation.
	Two-electron integral transformation complete.
	(VV|OV)...
	Starting AA second half-transformation.
	Starting AB second half-transformation.
	Starting BB second half-transformation.
	Two-electron integral transformation complete.
	(VV|VV)...
	Starting AA second half-transformation.
	Starting AB second half-transformation.
	Starting BB second half-transformation.
	Two-electron integral transformation complete.
	Frozen core energy     =   -125.85454436766175

	Size of irrep 0 of <AB|CD> integrals:     19.643 (MW) /    157.141 (MB)
	Size of irrep 1 of <AB|CD> integrals:     13.660 (MW) /    109.283 (MB)
	Total:                                    33.303 (MW) /    266.424 (MB)

	Size of irrep 0 of <ab|cd> integrals:     20.794 (MW) /    166.349 (MB)
	Size of irrep 1 of <ab|cd> integrals:     14.631 (MW) /    117.045 (MB)
	Total:                                    35.424 (MW) /    283.394 (MB)

	Size of irrep 0 of <Ab|Cd> integrals:     83.174 (MW) /    665.395 (MB)
	Size of irrep 1 of <Ab|Cd> integrals:     56.550 (MW) /    452.403 (MB)
	Total:                                   139.725 (MW) /   1117.798 (MB)

	Size of irrep 0 of <IA|BC> integrals:      5.323 (MW) /     42.586 (MB)
	Size of irrep 1 of <IA|BC> integrals:      3.193 (MW) /     25.547 (MB)
	Total:                                     8.517 (MW) /     68.133 (MB)

	Size of irrep 0 of <ia|bc> integrals:      4.348 (MW) /     34.780 (MB)
	Size of irrep 1 of <ia|bc> integrals:      2.372 (MW) /     18.972 (MB)
	Total:                                     6.719 (MW) /     53.752 (MB)

	Size of irrep 0 of <Ia|Bc> integrals:      5.472 (MW) /     43.776 (MB)
	Size of irrep 1 of <Ia|Bc> integrals:      3.309 (MW) /     26.470 (MB)
	Total:                                     8.781 (MW) /     70.246 (MB)

	Size of irrep 0 of <iA|bC> integrals:      4.232 (MW) /     33.853 (MB)
	Size of irrep 1 of <iA|bC> integrals:      2.286 (MW) /     18.289 (MB)
	Total:                                     6.518 (MW) /     52.142 (MB)

	Size of irrep 0 of tIjAb amplitudes:       0.292 (MW) /      2.335 (MB)
	Size of irrep 1 of tIjAb amplitudes:       0.120 (MW) /      0.963 (MB)
	Total:                                     0.412 (MW) /      3.297 (MB)

	Nuclear Rep. energy          =     22.89489915384003
	SCF energy                   =   -150.87438835291610
	One-electron energy          =    -84.38358579766913
	Two-electron (AA) energy     =     10.13482057728481
	Two-electron (BB) energy     =      5.39091215105234
	Two-electron (AB) energy     =     20.94310993023644
	Two-electron energy          =     36.46884265857359
	Reference energy             =   -150.87438835291726

*** tstop() called on d1-14.compute.lan at Wed Mar 10 10:58:40 2021
Module time:
	user time   =     258.08 seconds =       4.30 minutes
	system time =      37.85 seconds =       0.63 minutes
	total time  =         48 seconds =       0.80 minutes
Total time:
	user time   =     322.47 seconds =       5.37 minutes
	system time =      41.60 seconds =       0.69 minutes
	total time  =         58 seconds =       0.97 minutes
            **************************
            *                        *
            *        CCENERGY        *
            *                        *
            **************************

    Nuclear Rep. energy (wfn)     =   22.894899153840029
    SCF energy          (wfn)     = -150.874388352916100
    Reference energy    (file100) = -150.874388352917265

    Input parameters:
    -----------------
    Wave function   =     CCSD_T
    Reference wfn   =     UHF
    Brueckner       =     No
    Memory (Mbytes) =     4000.0
    Maxiter         =     50
    R_Convergence   =     1.0e-10
    E_Convergence   =     1.0e-10
    Restart         =     Yes
    DIIS            =     Yes
    AO Basis        =     NONE
    ABCD            =     NEW
    Cache Level     =     2
    Cache Type      =     LRU
    Print Level     =     1
    Num. of threads =     12
    # Amps to Print =     10
    Print MP2 Amps? =     No
    Analyze T2 Amps =     No
    Print Pair Ener =     No
    Local CC        =     No
    SCS-MP2         =     False
    SCSN-MP2        =     False
    SCS-CCSD        =     False

MP2 correlation energy -0.4166943283352645
                Solving CC Amplitude Equations
                ------------------------------
  Iter             Energy              RMS        T1Diag      D1Diag    New D1Diag    D2Diag
  ----     ---------------------    ---------   ----------  ----------  ----------   --------
     0        -0.416694328335264    0.000e+00    0.000000    0.000000    0.000000    0.000000
     1        -0.427388620381124    5.695e-02    0.010566    0.000000    0.000000    0.000000
     2        -0.435487427663272    1.692e-02    0.011043    0.000000    0.000000    0.000000
     3        -0.437613986849109    8.589e-03    0.012918    0.000000    0.000000    0.000000
     4        -0.437488109107355    2.537e-03    0.013285    0.000000    0.000000    0.000000
     5        -0.437473619010021    1.322e-03    0.013442    0.000000    0.000000    0.000000
     6        -0.437500839392348    5.154e-04    0.013464    0.000000    0.000000    0.000000
     7        -0.437505473032380    2.651e-04    0.013459    0.000000    0.000000    0.000000
     8        -0.437506078857720    9.972e-05    0.013454    0.000000    0.000000    0.000000
     9        -0.437507455872258    7.440e-05    0.013455    0.000000    0.000000    0.000000
    10        -0.437505892831645    6.425e-05    0.013456    0.000000    0.000000    0.000000
    11        -0.437506039702577    6.139e-05    0.013458    0.000000    0.000000    0.000000
    12        -0.437505750765432    5.970e-05    0.013460    0.000000    0.000000    0.000000
    13        -0.437505743529404    5.855e-05    0.013463    0.000000    0.000000    0.000000
    14        -0.437506919764686    5.667e-05    0.013481    0.000000    0.000000    0.000000
    15        -0.437507297909686    5.015e-05    0.013554    0.000000    0.000000    0.000000
    16        -0.437507074547633    3.355e-05    0.013694    0.000000    0.000000    0.000000
    17        -0.437506728893885    1.620e-05    0.013763    0.000000    0.000000    0.000000
    18        -0.437506598495777    7.601e-06    0.013780    0.000000    0.000000    0.000000
    19        -0.437506858127326    3.359e-06    0.013785    0.000000    0.000000    0.000000
    20        -0.437506969927446    1.505e-06    0.013786    0.000000    0.000000    0.000000
    21        -0.437506977873831    5.923e-07    0.013786    0.000000    0.000000    0.000000
    22        -0.437506979202036    2.808e-07    0.013786    0.000000    0.000000    0.000000
    23        -0.437506978115997    1.457e-07    0.013786    0.000000    0.000000    0.000000
    24        -0.437506977446747    6.048e-08    0.013786    0.000000    0.000000    0.000000
    25        -0.437506978413012    3.301e-08    0.013786    0.000000    0.000000    0.000000
    26        -0.437506978870974    2.559e-08    0.013786    0.000000    0.000000    0.000000
    27        -0.437506979028736    2.396e-08    0.013786    0.000000    0.000000    0.000000
    28        -0.437506978977150    2.321e-08    0.013786    0.000000    0.000000    0.000000
    29        -0.437506978813610    2.254e-08    0.013786    0.000000    0.000000    0.000000
    30        -0.437506978547485    2.145e-08    0.013786    0.000000    0.000000    0.000000
    31        -0.437506978744672    1.816e-08    0.013786    0.000000    0.000000    0.000000
    32        -0.437506979088493    9.534e-09    0.013786    0.000000    0.000000    0.000000
    33        -0.437506979190499    4.168e-09    0.013786    0.000000    0.000000    0.000000
    34        -0.437506979242708    1.705e-09    0.013786    0.000000    0.000000    0.000000
    35        -0.437506979249545    6.717e-10    0.013786    0.000000    0.000000    0.000000
    36        -0.437506979249270    2.875e-10    0.013786    0.000000    0.000000    0.000000

      * MP2 total energy                      = -151.291082681252533
      * CCSD total energy                     = -151.311895332165818
      * CCSD(T) total energy                     = -151.324261223670135
*** Psi4 exiting successfully. Buy a developer a beer!
