                               Psi4 1.3.2 release

  ==> Input File <==

--------------------------------------------------------------------------
memory 4 GB

molecule  {
0 3
O   -1.524700329696   -0.028676944082    0.000000000000
H   -0.562096927496   -0.015258153184    0.000000000000
H   -1.779825965326    0.899320180574    0.000000000000
O    1.672262762574   -0.027027000731    0.000000000000
}
set {
basis aug-cc-pvtz
reference uhf
e_convergence 10
scf_type pk
freeze_core true
}

set ccenergy {
e_convergence 10
r_convergence 10
}

e = energy('ccsd(t)')

print_out('Stephenergy {}'.format(e))

--------------------------------------------------------------------------

    Molecular point group: cs

    Geometry (in Angstrom), charge = 0, multiplicity = 3:

       Center              X                  Y                   Z               Mass
    ------------   -----------------  -----------------  -----------------  -----------------
         O           -1.524700329696    -0.028676944082     0.000000000000    15.994914619570
         H           -0.562096927496    -0.015258153184     0.000000000000     1.007825032230
         H           -1.779825965326     0.899320180574     0.000000000000     1.007825032230
         O            1.672262762574    -0.027027000731     0.000000000000    15.994914619570

  Charge       = 0
  Multiplicity = 3
  Basis Set: AUG-CC-PVTZ
    Blend: AUG-CC-PVTZ

    Orbital Energies [Eh]
    ---------------------

    Alpha Occupied:

       1Ap   -20.734804     2Ap   -20.558562     3Ap    -1.444100
       4Ap    -1.342418     5Ap    -0.734647     1App   -0.734507
       6Ap    -0.709851     7Ap    -0.636793     8Ap    -0.574193
       2App   -0.501594

    Alpha Virtual:

       9Ap     0.034580    10Ap     0.053250    11Ap     0.127594
       3App    0.131530    12Ap     0.148053    13Ap     0.161190
      14Ap     0.183349     4App    0.186149    15Ap     0.211254
      16Ap     0.241476    17Ap     0.271948     5App    0.282290
      18Ap     0.293084     6App    0.323471    19Ap     0.372096
      20Ap     0.392231    21Ap     0.459759    22Ap     0.558689
       7App    0.600096    23Ap     0.608594    24Ap     0.644359
      25Ap     0.668100     8App    0.712018    26Ap     0.712315
       9App    0.734711    10App    0.746919    27Ap     0.765305
      28Ap     0.796259    11App    0.824712    29Ap     0.851253
      30Ap     0.865422    12App    0.882599    31Ap     0.922659
      13App    0.942405    32Ap     0.943575    33Ap     0.956668
      14App    0.983488    34Ap     0.986885    35Ap     1.042867
      36Ap     1.127770    37Ap     1.168485    15App    1.177795
      38Ap     1.193911    16App    1.257695    39Ap     1.272182
      40Ap     1.322080    17App    1.528150    41Ap     1.556358
      18App    1.601131    42Ap     1.687654    43Ap     1.816698
      44Ap     1.824597    19App    1.975683    45Ap     1.975723
      46Ap     1.996449    20App    2.011116    47Ap     2.017804
      21App    2.047594    48Ap     2.059902    22App    2.121579
      49Ap     2.162491    50Ap     2.164287    23App    2.209668
      24App    2.293735    51Ap     2.297939    52Ap     2.329906
      53Ap     2.413727    25App    2.447330    54Ap     2.459993
      26App    2.522610    55Ap     2.535138    56Ap     2.629452
      57Ap     2.667492    27App    2.729148    58Ap     2.750533
      59Ap     2.866224    60Ap     2.944511    28App    2.945498
      61Ap     3.697156    62Ap     3.891534    29App    4.033668
      30App    4.058122    63Ap     4.076531    31App    4.171330
      64Ap     4.202462    65Ap     4.271245    32App    4.302060
      66Ap     4.376704    33App    4.393117    67Ap     4.437851
      34App    4.439454    68Ap     4.574383    69Ap     4.780859
      70Ap     4.957741    35App    5.155192    71Ap     5.177235
      72Ap     5.308630    73Ap     5.372179    36App    5.524669
      74Ap     5.693246    75Ap     6.194438    37App    6.310351
      76Ap     6.310393    38App    6.372421    77Ap     6.375205
      39App    6.518500    78Ap     6.527018    79Ap     6.555088
      80Ap     6.632946    40App    6.724064    81Ap     6.812297
      41App    6.818444    82Ap     6.910056    42App    6.933477
      83Ap     6.965843    84Ap     7.049160    43App    7.146972
      44App    7.274300    85Ap     7.325542    45App    7.325557
      86Ap     7.358547    46App    7.441195    87Ap     7.659077
      88Ap     7.948811    89Ap     7.963065    90Ap     8.807054
      91Ap     9.375277    92Ap    16.523143

    Beta Occupied:

       1Ap   -20.656026     2Ap   -20.558699     3Ap    -1.343008
       4Ap    -1.101645     5Ap    -0.708906     6Ap    -0.580615
       7Ap    -0.542066     1App   -0.501648

    Beta Virtual:

       8Ap     0.034211     9Ap     0.046068     2App    0.047724
      10Ap     0.057728    11Ap     0.144149    12Ap     0.150972
       3App    0.160371    13Ap     0.179819    14Ap     0.210220
      15Ap     0.217699     4App    0.225960    16Ap     0.251081
      17Ap     0.273949     5App    0.282629    18Ap     0.295354
       6App    0.327096    19Ap     0.375869    20Ap     0.402757
      21Ap     0.460476    22Ap     0.561565     7App    0.632409
      23Ap     0.638900    24Ap     0.647455    25Ap     0.671065
      26Ap     0.713027     8App    0.725815     9App    0.735864
      10App    0.748331    27Ap     0.783768    28Ap     0.808410
      29Ap     0.857620    11App    0.867134    30Ap     0.918053
      12App    0.935525    31Ap     0.943324    13App    0.949748
      32Ap     0.953707    33Ap     0.974800    34Ap     1.015534
      14App    1.024948    35Ap     1.046885    36Ap     1.152811
      37Ap     1.176862    15App    1.181032    38Ap     1.219923
      16App    1.268834    39Ap     1.274283    40Ap     1.332950
      17App    1.528980    41Ap     1.562269    18App    1.602734
      42Ap     1.714853    43Ap     1.821506    44Ap     1.831777
      45Ap     2.003843    19App    2.013794    46Ap     2.014000
      20App    2.052248    47Ap     2.065081    21App    2.169183
      22App    2.179455    48Ap     2.179734    49Ap     2.202966
      50Ap     2.224807    23App    2.247575    24App    2.295623
      51Ap     2.314752    52Ap     2.343817    53Ap     2.421371
      25App    2.449819    54Ap     2.460845    26App    2.531194
      55Ap     2.542484    56Ap     2.635474    57Ap     2.678691
      27App    2.730263    58Ap     2.756955    59Ap     2.870984
      28App    2.946186    60Ap     2.947191    61Ap     3.697600
      62Ap     3.894279    29App    4.033860    30App    4.145255
      63Ap     4.182497    64Ap     4.243086    31App    4.254112
      65Ap     4.293611    32App    4.302407    66Ap     4.392353
      33App    4.393303    34App    4.441029    67Ap     4.467843
      68Ap     4.575325    69Ap     4.782263    70Ap     4.959998
      35App    5.155177    71Ap     5.177752    72Ap     5.308838
      73Ap     5.373230    36App    5.524751    74Ap     5.693883
      75Ap     6.194896    37App    6.419313    76Ap     6.419341
      38App    6.447847    77Ap     6.450759    78Ap     6.533755
      39App    6.573495    79Ap     6.604363    80Ap     6.679164
      40App    6.728303    81Ap     6.911659    41App    7.004580
      82Ap     7.005494    42App    7.041730    83Ap     7.070963
      84Ap     7.129557    43App    7.149241    44App    7.274708
      85Ap     7.325638    45App    7.326452    86Ap     7.359048
      46App    7.441634    87Ap     7.660448    88Ap     7.949119
      89Ap     7.963246    90Ap     8.809452    91Ap     9.449909
      92Ap    16.523711

    Final Occupation by Irrep:
             Ap   App
    DOCC [     7,    1 ]
    SOCC [     1,    1 ]

  @UHF Final Energy:  -150.87440332541183

   => Energetics <=

    Nuclear Repulsion Energy =             22.8163055664975616
    One-Electron Energy =                -253.4173340717131566
    Two-Electron Energy =                  79.7266251798037615
    Total Energy =                       -150.8744033254118335

  UHF NO Occupations:
  HONO-2 :    7 Ap 1.9970298
  HONO-1 :    2App 1.0000000
  HONO-0 :    8 Ap 1.0000000
  LUNO+0 :    9 Ap 0.0029702
  LUNO+1 :   10 Ap 0.0017134
  LUNO+2 :   11 Ap 0.0000024
  LUNO+3 :   12 Ap 0.0000018

Computation Completed

Properties will be evaluated at   0.000000,   0.000000,   0.000000 [a0]

Properties computed using the SCF density matrix

  Nuclear Dipole Moment: [e a0]
     X:    -2.1948      Y:     0.8285      Z:     0.0000

  Electronic Dipole Moment: [e a0]
     X:     2.7589      Y:    -0.2130      Z:     0.0000

  Dipole Moment: [e a0]
     X:     0.5641      Y:     0.6155      Z:     0.0000     Total:     0.8349

  Dipole Moment: [D]
     X:     1.4338      Y:     1.5645      Z:     0.0000     Total:     2.1221

*** tstop() called on c5-7.compute.lan at Tue Mar  9 14:51:35 2021
Module time:
	user time   =      55.88 seconds =       0.93 minutes
	system time =       1.13 seconds =       0.02 minutes
	total time  =          7 seconds =       0.12 minutes
Total time:
	user time   =      55.88 seconds =       0.93 minutes
	system time =       1.13 seconds =       0.02 minutes
	total time  =          7 seconds =       0.12 minutes
 MINTS: Wrapper to libmints.
   by Justin Turney

   Calculation information:
      Number of threads:                12
      Number of atoms:                   4
      Number of AO shells:              46
      Number of SO shells:              46
      Number of primitives:             82
      Number of atomic orbitals:       160
      Number of basis functions:       138

      Number of irreps:                  2
      Integral cutoff                 0.00e+00
      Number of functions per irrep: [  92   46 ]

 OEINTS: Overlap, kinetic, potential, dipole, and quadrupole integrals
         stored in file 35.

      Computing two-electron integrals...done
      Computed 22948305 non-zero two-electron integrals.
        Stored in file 33.

*** tstart() called on c5-7.compute.lan
*** at Tue Mar  9 14:51:38 2021

	Wfn Parameters:
	--------------------
	Wavefunction         = CCSD_T
	Number of irreps     = 2
	Number of MOs        = 138
	Number of active MOs = 136
	AO-Basis             = NONE
	Semicanonical        = false
	Reference            = UHF
	Print Level          = 1

	IRREP	# MOs	# FZDC	# DOCC	# SOCC	# VIRT	# FZVR
	-----	-----	------	------	------	------	------
	 Ap	   92	    2	    5	    1	    84	    0
	 App	   46	    0	    1	    1	    44	    0
	Transforming integrals...
	IWL integrals will be deleted.
	(OO|OO)...
	Presorting SO-basis two-electron integrals.
	Sorting File: SO Ints (nn|nn) nbuckets = 1
	Transforming the one-electron integrals and constructing Fock matrices
	Starting AA/AB first half-transformation.
	Sorting AA/AB half-transformed integrals.
	Starting BB first half-transformation.
	Sorting BB half-transformed integrals.
	First half integral transformation complete.
	Starting AA second half-transformation.
	Starting AB second half-transformation.
	Starting BB second half-transformation.
	Two-electron integral transformation complete.
	(OO|OV)...
	Starting AA second half-transformation.
	Starting AB second half-transformation.
	Starting BB second half-transformation.
	Two-electron integral transformation complete.
	(OO|VV)...
	Starting AA second half-transformation.
	Starting AB second half-transformation.
	Starting BB second half-transformation.
	Two-electron integral transformation complete.
	(OV|OO)...
	Starting AA/AB first half-transformation.
	Sorting AA/AB half-transformed integrals.
	Starting BB first half-transformation.
	Sorting BB half-transformed integrals.
	First half integral transformation complete.
	Starting AA second half-transformation.
	Starting AB second half-transformation.
	Starting BB second half-transformation.
	Two-electron integral transformation complete.
	(OV|OV)...
	Starting AA second half-transformation.
	Starting AB second half-transformation.
	Starting BB second half-transformation.
	Two-electron integral transformation complete.
	(OV|VV)...
	Starting AA second half-transformation.
	Starting AB second half-transformation.
	Starting BB second half-transformation.
	Two-electron integral transformation complete.
	(VV|OO)...
	Starting AA/AB first half-transformation.
	Sorting AA/AB half-transformed integrals.
	Starting BB first half-transformation.
	Sorting BB half-transformed integrals.
	First half integral transformation complete.
	Starting AA second half-transformation.
	Starting AB second half-transformation.
	Starting BB second half-transformation.
	Two-electron integral transformation complete.
	(VV|OV)...
	Starting AA second half-transformation.
	Starting AB second half-transformation.
	Starting BB second half-transformation.
	Two-electron integral transformation complete.
	(VV|VV)...
	Starting AA second half-transformation.
	Starting AB second half-transformation.
	Starting BB second half-transformation.
	Two-electron integral transformation complete.
	Frozen core energy     =   -125.81447788521149

	Size of irrep 0 of <AB|CD> integrals:     19.643 (MW) /    157.141 (MB)
	Size of irrep 1 of <AB|CD> integrals:     13.660 (MW) /    109.283 (MB)
	Total:                                    33.303 (MW) /    266.424 (MB)

	Size of irrep 0 of <ab|cd> integrals:     20.794 (MW) /    166.349 (MB)
	Size of irrep 1 of <ab|cd> integrals:     14.631 (MW) /    117.045 (MB)
	Total:                                    35.424 (MW) /    283.394 (MB)

	Size of irrep 0 of <Ab|Cd> integrals:     83.174 (MW) /    665.395 (MB)
	Size of irrep 1 of <Ab|Cd> integrals:     56.550 (MW) /    452.403 (MB)
	Total:                                   139.725 (MW) /   1117.798 (MB)

	Size of irrep 0 of <IA|BC> integrals:      5.323 (MW) /     42.586 (MB)
	Size of irrep 1 of <IA|BC> integrals:      3.193 (MW) /     25.547 (MB)
	Total:                                     8.517 (MW) /     68.133 (MB)

	Size of irrep 0 of <ia|bc> integrals:      4.348 (MW) /     34.780 (MB)
	Size of irrep 1 of <ia|bc> integrals:      2.372 (MW) /     18.972 (MB)
	Total:                                     6.719 (MW) /     53.752 (MB)

	Size of irrep 0 of <Ia|Bc> integrals:      5.472 (MW) /     43.776 (MB)
	Size of irrep 1 of <Ia|Bc> integrals:      3.309 (MW) /     26.470 (MB)
	Total:                                     8.781 (MW) /     70.246 (MB)

	Size of irrep 0 of <iA|bC> integrals:      4.232 (MW) /     33.853 (MB)
	Size of irrep 1 of <iA|bC> integrals:      2.286 (MW) /     18.289 (MB)
	Total:                                     6.518 (MW) /     52.142 (MB)

	Size of irrep 0 of tIjAb amplitudes:       0.292 (MW) /      2.335 (MB)
	Size of irrep 1 of tIjAb amplitudes:       0.120 (MW) /      0.963 (MB)
	Total:                                     0.412 (MW) /      3.297 (MB)

	Nuclear Rep. energy          =     22.81630556649756
	SCF energy                   =   -150.87440332541183
	One-electron energy          =    -84.29646984611173
	Two-electron (AA) energy     =     10.11766640387943
	Two-electron (BB) energy     =      5.38341904228651
	Two-electron (AB) energy     =     20.91915339324642
	Two-electron energy          =     36.42023883941236
	Reference energy             =   -150.87440332541331

*** tstop() called on c5-7.compute.lan at Tue Mar  9 14:52:28 2021
Module time:
	user time   =     237.50 seconds =       3.96 minutes
	system time =      19.63 seconds =       0.33 minutes
	total time  =         50 seconds =       0.83 minutes
Total time:
	user time   =     298.97 seconds =       4.98 minutes
	system time =      21.32 seconds =       0.36 minutes
	total time  =         60 seconds =       1.00 minutes
            **************************
            *                        *
            *        CCENERGY        *
            *                        *
            **************************

    Nuclear Rep. energy (wfn)     =   22.816305566497562
    SCF energy          (wfn)     = -150.874403325411834
    Reference energy    (file100) = -150.874403325413311

    Input parameters:
    -----------------
    Wave function   =     CCSD_T
    Reference wfn   =     UHF
    Brueckner       =     No
    Memory (Mbytes) =     4000.0
    Maxiter         =     50
    R_Convergence   =     1.0e-10
    E_Convergence   =     1.0e-10
    Restart         =     Yes
    DIIS            =     Yes
    AO Basis        =     NONE
    ABCD            =     NEW
    Cache Level     =     2
    Cache Type      =     LRU
    Print Level     =     1
    Num. of threads =     12
    # Amps to Print =     10
    Print MP2 Amps? =     No
    Analyze T2 Amps =     No
    Print Pair Ener =     No
    Local CC        =     No
    SCS-MP2         =     False
    SCSN-MP2        =     False
    SCS-CCSD        =     False

MP2 correlation energy -0.4165862574392580
                Solving CC Amplitude Equations
                ------------------------------
  Iter             Energy              RMS        T1Diag      D1Diag    New D1Diag    D2Diag
  ----     ---------------------    ---------   ----------  ----------  ----------   --------
     0        -0.416586257439258    0.000e+00    0.000000    0.000000    0.000000    0.000000
     1        -0.427313505318807    5.685e-02    0.010540    0.000000    0.000000    0.000000
     2        -0.435409224315031    1.688e-02    0.011027    0.000000    0.000000    0.000000
     3        -0.437526415203541    8.570e-03    0.012897    0.000000    0.000000    0.000000
     4        -0.437401331228785    2.534e-03    0.013264    0.000000    0.000000    0.000000
     5        -0.437386364623126    1.324e-03    0.013421    0.000000    0.000000    0.000000
     6        -0.437413594367421    5.156e-04    0.013443    0.000000    0.000000    0.000000
     7        -0.437418392874050    2.660e-04    0.013438    0.000000    0.000000    0.000000
     8        -0.437418967393903    9.549e-05    0.013433    0.000000    0.000000    0.000000
     9        -0.437420368657966    6.825e-05    0.013434    0.000000    0.000000    0.000000
    10        -0.437418832229506    5.708e-05    0.013435    0.000000    0.000000    0.000000
    11        -0.437418955004350    5.394e-05    0.013436    0.000000    0.000000    0.000000
    12        -0.437418760305233    5.227e-05    0.013438    0.000000    0.000000    0.000000
    13        -0.437418743524501    5.133e-05    0.013440    0.000000    0.000000    0.000000
    14        -0.437419634035493    5.008e-05    0.013450    0.000000    0.000000    0.000000
    15        -0.437419958970985    4.585e-05    0.013493    0.000000    0.000000    0.000000
    16        -0.437419733965995    3.340e-05    0.013610    0.000000    0.000000    0.000000
    17        -0.437419448848294    1.708e-05    0.013682    0.000000    0.000000    0.000000
    18        -0.437419304865274    8.034e-06    0.013703    0.000000    0.000000    0.000000
    19        -0.437419550971072    3.528e-06    0.013709    0.000000    0.000000    0.000000
    20        -0.437419669175543    1.554e-06    0.013710    0.000000    0.000000    0.000000
    21        -0.437419675683722    6.159e-07    0.013710    0.000000    0.000000    0.000000
    22        -0.437419676614861    2.762e-07    0.013710    0.000000    0.000000    0.000000
    23        -0.437419675991028    1.379e-07    0.013710    0.000000    0.000000    0.000000
    24        -0.437419675270240    5.257e-08    0.013710    0.000000    0.000000    0.000000
    25        -0.437419676159081    2.598e-08    0.013710    0.000000    0.000000    0.000000
    26        -0.437419676581446    1.791e-08    0.013710    0.000000    0.000000    0.000000
    27        -0.437419676703022    1.620e-08    0.013710    0.000000    0.000000    0.000000
    28        -0.437419676682178    1.560e-08    0.013710    0.000000    0.000000    0.000000
    29        -0.437419676593757    1.519e-08    0.013710    0.000000    0.000000    0.000000
    30        -0.437419676417961    1.468e-08    0.013710    0.000000    0.000000    0.000000
    31        -0.437419676452367    1.317e-08    0.013710    0.000000    0.000000    0.000000
    32        -0.437419676684484    8.347e-09    0.013710    0.000000    0.000000    0.000000
    33        -0.437419676767659    3.850e-09    0.013710    0.000000    0.000000    0.000000
    34        -0.437419676819744    1.649e-09    0.013710    0.000000    0.000000    0.000000
    35        -0.437419676826151    6.513e-10    0.013710    0.000000    0.000000    0.000000
    36        -0.437419676825079    2.594e-10    0.013710    0.000000    0.000000    0.000000

      * MP2 total energy                      = -151.290989582852575
      * CCSD total energy                     = -151.311823002237560
      * CCSD(T) total energy                     = -151.324178503543095
*** Psi4 exiting successfully. Buy a developer a beer!
