                               Psi4 1.3.2 release

  ==> Input File <==

--------------------------------------------------------------------------
memory 4 GB

molecule  {
0 3
O    0.000000000000    0.000000000000    1.268861218882
H    0.000000000000   -0.758095927468    1.857959265782
H   -0.000000000000    0.758095927468    1.857959265782
O    0.000000000000    0.000000000000   -1.502997868118
}
set {
basis aug-cc-pvtz
reference uhf
e_convergence 10
scf_type pk
freeze_core true
}

set ccenergy {
e_convergence 10
r_convergence 10
}

e = energy('ccsd(t)')

print_out('Stephenergy {}'.format(e))

--------------------------------------------------------------------------

    Molecular point group: c2v

    Geometry (in Angstrom), charge = 0, multiplicity = 3:

       Center              X                  Y                   Z               Mass
    ------------   -----------------  -----------------  -----------------  -----------------
         O           -0.000000000000     0.000000000000     1.268861218882    15.994914619570
         H            0.000000000000    -0.758095927468     1.857959265782     1.007825032230
         H           -0.000000000000     0.758095927468     1.857959265782     1.007825032230
         O           -0.000000000000     0.000000000000    -1.502997868118    15.994914619570

  Charge       = 0
  Multiplicity = 3
  Basis Set: AUG-CC-PVTZ
    Blend: AUG-CC-PVTZ

    Orbital Energies [Eh]
    ---------------------

    Alpha Occupied:

       1A1   -20.684482     2A1   -20.570981     3A1    -1.393917
       4A1    -1.356146     1B2    -0.719374     5A1    -0.688216
       1B1    -0.685211     6A1    -0.586906     2B2    -0.586220
       2B1    -0.514139

    Alpha Virtual:

       7A1     0.029566     3B2     0.047685     8A1     0.118543
       3B1     0.154031     9A1     0.159500     4B2     0.180353
       5B2     0.186955     4B1     0.192735    10A1     0.198118
       1A2     0.263756     6B2     0.264176    11A1     0.264899
      12A1     0.314336     5B1     0.326730    13A1     0.376001
       7B2     0.380445    14A1     0.450371     8B2     0.464617
       9B2     0.599973     6B1     0.643631    15A1     0.647569
       2A2     0.658164    16A1     0.666716    17A1     0.696418
       3A2     0.721759    10B2     0.722804     7B1     0.767613
      18A1     0.792684    19A1     0.818836     8B1     0.838059
      20A1     0.861498     9B1     0.901165    11B2     0.918625
       4A2     0.924997    12B2     0.946631    13B2     0.980249
      21A1     0.990064    10B1     1.012881    22A1     1.046819
      14B2     1.051883    11B1     1.122333     5A2     1.177227
      23A1     1.192281    15B2     1.198996    16B2     1.326869
      24A1     1.336434    25A1     1.444083     6A2     1.507725
      12B1     1.594784    26A1     1.666124    27A1     1.811688
      17B2     1.824281    18B2     1.978242    28A1     2.040821
      13B1     2.047894    19B2     2.054104     7A2     2.056933
      14B1     2.058995    29A1     2.079869    30A1     2.114953
       8A2     2.118779    20B2     2.135649    31A1     2.141376
      15B1     2.145766    32A1     2.252531    21B2     2.268050
      16B1     2.303206     9A2     2.312161    17B1     2.434901
      33A1     2.470954    22B2     2.481880    34A1     2.487566
      35A1     2.695373    18B1     2.715685    23B2     2.719951
      36A1     2.841901    24B2     2.861251    10A2     2.880962
      25B2     3.693425    37A1     3.754612    11A2     4.014945
      19B1     4.080895    20B1     4.099550    38A1     4.139671
      26B2     4.183767    27B2     4.283957    21B1     4.288774
      39A1     4.352185    12A2     4.382405    40A1     4.426324
      22B1     4.453151    28B2     4.517221    41A1     4.791595
      29B2     4.844672    30B2     5.145544    13A2     5.147886
      31B2     5.249587    42A1     5.345985    23B1     5.521046
      43A1     5.685355    44A1     6.201896    24B1     6.389213
      45A1     6.409148    14A2     6.410239    32B2     6.423664
      25B1     6.435575    33B2     6.486096    46A1     6.537560
      34B2     6.581021    26B1     6.716855    27B1     6.902467
      47A1     6.906463    15A2     6.924569    48A1     6.942292
      35B2     6.985794    49A1     7.047212    28B1     7.136312
      29B1     7.279584    16A2     7.309509    36B2     7.310549
      17A2     7.352755    50A1     7.439593    51A1     7.546378
      52A1     7.909862    37B2     7.921371    38B2     8.813364
      53A1     8.863083    54A1    15.818608

    Beta Occupied:

       1A1   -20.605615     2A1   -20.570515     3A1    -1.355461
       4A1    -1.051104     1B2    -0.719043     5A1    -0.588678
       1B1    -0.513475     2B2    -0.495637

    Beta Virtual:

       6A1     0.029407     3B2     0.047766     2B1     0.086532
       7A1     0.091942     8A1     0.140947     9A1     0.167083
       3B1     0.170580     4B2     0.180977     5B2     0.190550
      10A1     0.225660     4B1     0.253297     1A2     0.263759
       6B2     0.264622    11A1     0.288451    12A1     0.316730
       5B1     0.328032     7B2     0.380618    13A1     0.386368
      14A1     0.451450     8B2     0.464813     9B2     0.601599
      15A1     0.660746     6B1     0.667453     2A2     0.672581
      16A1     0.673613    17A1     0.713712     3A2     0.722225
      10B2     0.735014     7B1     0.778919    18A1     0.806041
       8B1     0.847163    19A1     0.851496     4A2     0.925388
      20A1     0.927944    11B2     0.936449    12B2     0.953637
      13B2     0.983976     9B1     0.986630    21A1     0.997366
      22A1     1.052914    14B2     1.052987    10B1     1.060556
      11B1     1.138444     5A2     1.177426    23A1     1.193781
      15B2     1.201703    16B2     1.329281    24A1     1.393037
      25A1     1.483160     6A2     1.508143    12B1     1.596755
      26A1     1.696525    27A1     1.816751    17B2     1.824622
      18B2     1.979667    28A1     2.070513    13B1     2.070849
      19B2     2.071518     7A2     2.081580    29A1     2.100494
      14B1     2.100656    30A1     2.155968    20B2     2.181535
       8A2     2.201992    31A1     2.207873    15B1     2.258713
      32A1     2.309526     9A2     2.312293    16B1     2.318949
      21B2     2.319663    17B1     2.442745    33A1     2.484242
      22B2     2.484736    34A1     2.515698    35A1     2.702913
      18B1     2.717410    23B2     2.720860    36A1     2.853939
      24B2     2.861426    10A2     2.880996    25B2     3.694299
      37A1     3.754745    11A2     4.014974    19B1     4.083410
      38A1     4.171884    26B2     4.219791    20B1     4.259714
      21B1     4.293520    27B2     4.294410    12A2     4.382512
      39A1     4.425352    22B1     4.458283    40A1     4.468734
      28B2     4.517297    41A1     4.802374    29B2     4.844828
      30B2     5.145726    13A2     5.147961    31B2     5.250000
      42A1     5.346643    23B1     5.521157    43A1     5.689910
      44A1     6.203589    24B1     6.485677    14A2     6.487068
      32B2     6.487799    45A1     6.493231    25B1     6.499442
      33B2     6.521312    34B2     6.609377    46A1     6.609402
      26B1     6.723756    47A1     6.958931    15A2     7.038122
      48A1     7.041997    27B1     7.085078    35B2     7.097654
      28B1     7.136707    49A1     7.174064    29B1     7.283685
      16A2     7.309789    36B2     7.310735    17A2     7.353157
      50A1     7.442376    51A1     7.547421    52A1     7.910428
      37B2     7.921720    38B2     8.813735    53A1     8.942476
      54A1    15.818927

    Final Occupation by Irrep:
             A1    A2    B1    B2
    DOCC [     5,    0,    1,    2 ]
    SOCC [     1,    0,    1,    0 ]

  @UHF Final Energy:  -150.87362903040034

   => Energetics <=

    Nuclear Repulsion Energy =             23.8436517861651467
    One-Electron Energy =                -255.7494408177005880
    Two-Electron Energy =                  81.0321600011351109
    Total Energy =                       -150.8736290304003376

  UHF NO Occupations:
  HONO-2 :    5 A1 1.9970492
  HONO-1 :    2 B1 1.0000000
  HONO-0 :    6 A1 1.0000000
  LUNO+0 :    7 A1 0.0029508
  LUNO+1 :    3 B2 0.0017953
  LUNO+2 :    8 A1 0.0000218
  LUNO+3 :    9 A1 0.0000024

Computation Completed

Properties will be evaluated at   0.000000,   0.000000,   0.000000 [a0]

Properties computed using the SCF density matrix

  Nuclear Dipole Moment: [e a0]
     X:    -0.0000      Y:     0.0000      Z:     3.4824

  Electronic Dipole Moment: [e a0]
     X:     0.0000      Y:     0.0000      Z:    -2.6458

  Dipole Moment: [e a0]
     X:    -0.0000      Y:     0.0000      Z:     0.8367     Total:     0.8367

  Dipole Moment: [D]
     X:    -0.0000      Y:     0.0000      Z:     2.1266     Total:     2.1266

*** tstop() called on c4-17.compute.lan at Mon Mar  8 17:37:18 2021
Module time:
	user time   =      45.32 seconds =       0.76 minutes
	system time =       0.91 seconds =       0.02 minutes
	total time  =          5 seconds =       0.08 minutes
Total time:
	user time   =      45.32 seconds =       0.76 minutes
	system time =       0.91 seconds =       0.02 minutes
	total time  =          5 seconds =       0.08 minutes
 MINTS: Wrapper to libmints.
   by Justin Turney

   Calculation information:
      Number of threads:                12
      Number of atoms:                   4
      Number of AO shells:              46
      Number of SO shells:              37
      Number of primitives:             82
      Number of atomic orbitals:       160
      Number of basis functions:       138

      Number of irreps:                  4
      Integral cutoff                 0.00e+00
      Number of functions per irrep: [  54   17   29   38 ]

 OEINTS: Overlap, kinetic, potential, dipole, and quadrupole integrals
         stored in file 35.

      Computing two-electron integrals...done
      Computed 11520600 non-zero two-electron integrals.
        Stored in file 33.

*** tstart() called on c4-17.compute.lan
*** at Mon Mar  8 17:37:20 2021

	Wfn Parameters:
	--------------------
	Wavefunction         = CCSD_T
	Number of irreps     = 4
	Number of MOs        = 138
	Number of active MOs = 136
	AO-Basis             = NONE
	Semicanonical        = false
	Reference            = UHF
	Print Level          = 1

	IRREP	# MOs	# FZDC	# DOCC	# SOCC	# VIRT	# FZVR
	-----	-----	------	------	------	------	------
	 A1	   54	    2	    3	    1	    48	    0
	 A2	   17	    0	    0	    0	    17	    0
	 B1	   29	    0	    1	    1	    27	    0
	 B2	   38	    0	    2	    0	    36	    0
	Transforming integrals...
	IWL integrals will be deleted.
	(OO|OO)...
	Presorting SO-basis two-electron integrals.
	Sorting File: SO Ints (nn|nn) nbuckets = 1
	Transforming the one-electron integrals and constructing Fock matrices
	Starting AA/AB first half-transformation.
	Sorting AA/AB half-transformed integrals.
	Starting BB first half-transformation.
	Sorting BB half-transformed integrals.
	First half integral transformation complete.
	Starting AA second half-transformation.
	Starting AB second half-transformation.
	Starting BB second half-transformation.
	Two-electron integral transformation complete.
	(OO|OV)...
	Starting AA second half-transformation.
	Starting AB second half-transformation.
	Starting BB second half-transformation.
	Two-electron integral transformation complete.
	(OO|VV)...
	Starting AA second half-transformation.
	Starting AB second half-transformation.
	Starting BB second half-transformation.
	Two-electron integral transformation complete.
	(OV|OO)...
	Starting AA/AB first half-transformation.
	Sorting AA/AB half-transformed integrals.
	Starting BB first half-transformation.
	Sorting BB half-transformed integrals.
	First half integral transformation complete.
	Starting AA second half-transformation.
	Starting AB second half-transformation.
	Starting BB second half-transformation.
	Two-electron integral transformation complete.
	(OV|OV)...
	Starting AA second half-transformation.
	Starting AB second half-transformation.
	Starting BB second half-transformation.
	Two-electron integral transformation complete.
	(OV|VV)...
	Starting AA second half-transformation.
	Starting AB second half-transformation.
	Starting BB second half-transformation.
	Two-electron integral transformation complete.
	(VV|OO)...
	Starting AA/AB first half-transformation.
	Sorting AA/AB half-transformed integrals.
	Starting BB first half-transformation.
	Sorting BB half-transformed integrals.
	First half integral transformation complete.
	Starting AA second half-transformation.
	Starting AB second half-transformation.
	Starting BB second half-transformation.
	Two-electron integral transformation complete.
	(VV|OV)...
	Starting AA second half-transformation.
	Starting AB second half-transformation.
	Starting BB second half-transformation.
	Two-electron integral transformation complete.
	(VV|VV)...
	Starting AA second half-transformation.
	Starting AB second half-transformation.
	Starting BB second half-transformation.
	Two-electron integral transformation complete.
	Frozen core energy     =   -126.37534829822906

	Size of irrep 0 of <AB|CD> integrals:      5.040 (MW) /     40.320 (MB)
	Size of irrep 1 of <AB|CD> integrals:      3.197 (MW) /     25.576 (MB)
	Size of irrep 2 of <AB|CD> integrals:      3.640 (MW) /     29.124 (MB)
	Size of irrep 3 of <AB|CD> integrals:      4.783 (MW) /     38.264 (MB)
	Total:                                    16.660 (MW) /    133.283 (MB)

	Size of irrep 0 of <ab|cd> integrals:      5.382 (MW) /     43.059 (MB)
	Size of irrep 1 of <ab|cd> integrals:      3.389 (MW) /     27.114 (MB)
	Size of irrep 2 of <ab|cd> integrals:      3.936 (MW) /     31.490 (MB)
	Size of irrep 3 of <ab|cd> integrals:      5.018 (MW) /     40.141 (MB)
	Total:                                    17.726 (MW) /    141.804 (MB)

	Size of irrep 0 of <Ab|Cd> integrals:     22.024 (MW) /    176.194 (MB)
	Size of irrep 1 of <Ab|Cd> integrals:     13.170 (MW) /    105.357 (MB)
	Size of irrep 2 of <Ab|Cd> integrals:     15.140 (MW) /    121.119 (MB)
	Size of irrep 3 of <Ab|Cd> integrals:     19.598 (MW) /    156.787 (MB)
	Total:                                    69.932 (MW) /    559.457 (MB)

	Size of irrep 0 of <IA|BC> integrals:      1.469 (MW) /     11.748 (MB)
	Size of irrep 1 of <IA|BC> integrals:      0.694 (MW) /      5.550 (MB)
	Size of irrep 2 of <IA|BC> integrals:      0.908 (MW) /      7.266 (MB)
	Size of irrep 3 of <IA|BC> integrals:      1.198 (MW) /      9.588 (MB)
	Total:                                     4.269 (MW) /     34.152 (MB)

	Size of irrep 0 of <ia|bc> integrals:      1.178 (MW) /      9.426 (MB)
	Size of irrep 1 of <ia|bc> integrals:      0.527 (MW) /      4.212 (MB)
	Size of irrep 2 of <ia|bc> integrals:      0.663 (MW) /      5.301 (MB)
	Size of irrep 3 of <ia|bc> integrals:      0.999 (MW) /      7.992 (MB)
	Total:                                     3.366 (MW) /     26.931 (MB)

	Size of irrep 0 of <Ia|Bc> integrals:      1.521 (MW) /     12.164 (MB)
	Size of irrep 1 of <Ia|Bc> integrals:      0.711 (MW) /      5.690 (MB)
	Size of irrep 2 of <Ia|Bc> integrals:      0.949 (MW) /      7.595 (MB)
	Size of irrep 3 of <Ia|Bc> integrals:      1.222 (MW) /      9.775 (MB)
	Total:                                     4.403 (MW) /     35.225 (MB)

	Size of irrep 0 of <iA|bC> integrals:      1.140 (MW) /      9.123 (MB)
	Size of irrep 1 of <iA|bC> integrals:      0.512 (MW) /      4.094 (MB)
	Size of irrep 2 of <iA|bC> integrals:      0.634 (MW) /      5.074 (MB)
	Size of irrep 3 of <iA|bC> integrals:      0.978 (MW) /      7.827 (MB)
	Total:                                     3.265 (MW) /     26.118 (MB)

	Size of irrep 0 of tIjAb amplitudes:       0.084 (MW) /      0.676 (MB)
	Size of irrep 1 of tIjAb amplitudes:       0.022 (MW) /      0.174 (MB)
	Size of irrep 2 of tIjAb amplitudes:       0.039 (MW) /      0.311 (MB)
	Size of irrep 3 of tIjAb amplitudes:       0.062 (MW) /      0.496 (MB)
	Total:                                     0.207 (MW) /      1.657 (MB)

	Nuclear Rep. energy          =     23.84365178616515
	SCF energy                   =   -150.87362903040034
	One-electron energy          =    -85.43033729119563
	Two-electron (AA) energy     =     10.36588362025975
	Two-electron (BB) energy     =      5.46850319346188
	Two-electron (AB) energy     =     21.25401795913647
	Two-electron energy          =     37.08840477285810
	Reference energy             =   -150.87362903040145

*** tstop() called on c4-17.compute.lan at Mon Mar  8 17:37:40 2021
Module time:
	user time   =      51.02 seconds =       0.85 minutes
	system time =       9.36 seconds =       0.16 minutes
	total time  =         20 seconds =       0.33 minutes
Total time:
	user time   =     102.11 seconds =       1.70 minutes
	system time =      10.70 seconds =       0.18 minutes
	total time  =         27 seconds =       0.45 minutes
            **************************
            *                        *
            *        CCENERGY        *
            *                        *
            **************************

    Nuclear Rep. energy (wfn)     =   23.843651786165147
    SCF energy          (wfn)     = -150.873629030400338
    Reference energy    (file100) = -150.873629030401446

    Input parameters:
    -----------------
    Wave function   =     CCSD_T
    Reference wfn   =     UHF
    Brueckner       =     No
    Memory (Mbytes) =     4000.0
    Maxiter         =     50
    R_Convergence   =     1.0e-10
    E_Convergence   =     1.0e-10
    Restart         =     Yes
    DIIS            =     Yes
    AO Basis        =     NONE
    ABCD            =     NEW
    Cache Level     =     2
    Cache Type      =     LRU
    Print Level     =     1
    Num. of threads =     12
    # Amps to Print =     10
    Print MP2 Amps? =     No
    Analyze T2 Amps =     No
    Print Pair Ener =     No
    Local CC        =     No
    SCS-MP2         =     False
    SCSN-MP2        =     False
    SCS-CCSD        =     False

MP2 correlation energy -0.4161650214212989
                Solving CC Amplitude Equations
                ------------------------------
  Iter             Energy              RMS        T1Diag      D1Diag    New D1Diag    D2Diag
  ----     ---------------------    ---------   ----------  ----------  ----------   --------
     0        -0.416165021421299    0.000e+00    0.000000    0.000000    0.000000    0.000000
     1        -0.426978759116426    5.689e-02    0.010563    0.000000    0.000000    0.000000
     2        -0.435061903353305    1.699e-02    0.011060    0.000000    0.000000    0.000000
     3        -0.437207116351362    8.756e-03    0.012978    0.000000    0.000000    0.000000
     4        -0.437080699098746    2.679e-03    0.013386    0.000000    0.000000    0.000000
     5        -0.437071256077647    1.393e-03    0.013579    0.000000    0.000000    0.000000
     6        -0.437100368649250    5.289e-04    0.013605    0.000000    0.000000    0.000000
     7        -0.437103337884694    2.141e-04    0.013599    0.000000    0.000000    0.000000
     8        -0.437104268826663    6.664e-05    0.013594    0.000000    0.000000    0.000000
     9        -0.437104951862272    2.381e-05    0.013594    0.000000    0.000000    0.000000
    10        -0.437104054759767    9.202e-06    0.013593    0.000000    0.000000    0.000000
    11        -0.437104219767787    3.997e-06    0.013593    0.000000    0.000000    0.000000
    12        -0.437104180444206    1.446e-06    0.013593    0.000000    0.000000    0.000000
    13        -0.437104188363553    7.304e-07    0.013593    0.000000    0.000000    0.000000
    14        -0.437104210993983    3.045e-07    0.013593    0.000000    0.000000    0.000000
    15        -0.437104212719715    1.106e-07    0.013593    0.000000    0.000000    0.000000
    16        -0.437104213304576    4.955e-08    0.013593    0.000000    0.000000    0.000000
    17        -0.437104213880727    1.907e-08    0.013593    0.000000    0.000000    0.000000
    18        -0.437104213739203    9.914e-09    0.013593    0.000000    0.000000    0.000000

      * MP2 total energy                      = -151.289794051822753
      * CCSD total energy                     = -151.310733243896209
      * CCSD(T) total energy                     = -151.323012209030992
*** Psi4 exiting successfully. Buy a developer a beer!
