                               Psi4 1.3.2 release

  ==> Input File <==

--------------------------------------------------------------------------
memory 4 GB

molecule  {
0 3
O    0.000000000000    0.000000000000    1.254673970700
H    0.000000000000   -0.759608112600    1.844553051300
H   -0.000000000000    0.759608112600    1.844553051300
O    0.000000000000   -0.000000000000   -1.487121193100
}
set {
basis aug-cc-pvtz
reference uhf
e_convergence 10
scf_type pk
freeze_core true
}

set ccenergy {
e_convergence 10
r_convergence 10
}

e = energy('ccsd(t)')

print_out('Stephenergy {}'.format(e))

--------------------------------------------------------------------------

    Molecular point group: c2v

    Geometry (in Angstrom), charge = 0, multiplicity = 3:

       Center              X                  Y                   Z               Mass
    ------------   -----------------  -----------------  -----------------  -----------------
         O            0.000000000000     0.000000000000     1.254673970673    15.994914619570
         H            0.000000000000    -0.759608112600     1.844553051273     1.007825032230
         H           -0.000000000000     0.759608112600     1.844553051273     1.007825032230
         O            0.000000000000     0.000000000000    -1.487121193127    15.994914619570

  Charge       = 0
  Multiplicity = 3
  Basis Set: AUG-CC-PVTZ
    Blend: AUG-CC-PVTZ

    Orbital Energies [Eh]
    ---------------------

    Alpha Occupied:

       1A1   -20.683867     2A1   -20.571344     3A1    -1.393414
       4A1    -1.355400     1B2    -0.718661     5A1    -0.688088
       1B1    -0.684659     6A1    -0.586318     2B2    -0.585667
       2B1    -0.514141

    Alpha Virtual:

       7A1     0.029554     3B2     0.047668     8A1     0.118176
       3B1     0.154314     9A1     0.159416     4B2     0.180240
       5B2     0.187405     4B1     0.192879    10A1     0.198252
       1A2     0.263674     6B2     0.264541    11A1     0.265750
      12A1     0.314412     5B1     0.327168    13A1     0.375956
       7B2     0.380439    14A1     0.449856     8B2     0.464232
       9B2     0.600106     6B1     0.644409    15A1     0.647958
       2A2     0.658257    16A1     0.667204    17A1     0.700694
       3A2     0.721873    10B2     0.725024     7B1     0.769385
      18A1     0.792662    19A1     0.820923     8B1     0.837738
      20A1     0.860422     9B1     0.901332    11B2     0.918470
       4A2     0.925164    12B2     0.947048    13B2     0.982211
      21A1     0.991986    10B1     1.016921    22A1     1.046991
      14B2     1.051664    11B1     1.124426     5A2     1.176944
      23A1     1.192277    15B2     1.202017    16B2     1.331751
      24A1     1.335022    25A1     1.456069     6A2     1.507178
      12B1     1.595289    26A1     1.669853    27A1     1.812564
      17B2     1.822743    18B2     1.975924    28A1     2.041203
      13B1     2.048704    19B2     2.054633     7A2     2.058893
      14B1     2.059428    29A1     2.079341    30A1     2.115203
       8A2     2.119768    20B2     2.139438    31A1     2.142532
      15B1     2.149377    32A1     2.253933    21B2     2.275971
      16B1     2.302351     9A2     2.311505    17B1     2.440206
      33A1     2.477193    22B2     2.482321    34A1     2.495225
      35A1     2.698587    18B1     2.717357    23B2     2.721936
      36A1     2.847394    24B2     2.860282    10A2     2.879865
      25B2     3.693822    37A1     3.752531    11A2     4.013275
      19B1     4.079205    20B1     4.100465    38A1     4.142757
      26B2     4.185389    27B2     4.283375    21B1     4.288875
      39A1     4.358282    12A2     4.382363    40A1     4.429180
      22B1     4.455136    28B2     4.515493    41A1     4.794537
      29B2     4.839514    30B2     5.141722    13A2     5.143361
      31B2     5.247004    42A1     5.339777    23B1     5.515585
      43A1     5.686396    44A1     6.200149    24B1     6.391391
      14A2     6.411436    45A1     6.412182    32B2     6.424641
      25B1     6.436382    33B2     6.493551    46A1     6.544850
      34B2     6.581076    26B1     6.719841    27B1     6.904621
      47A1     6.908949    15A2     6.925326    48A1     6.947297
      35B2     6.987754    49A1     7.046527    28B1     7.134393
      29B1     7.279415    16A2     7.305580    36B2     7.306962
      17A2     7.352126    50A1     7.438101    51A1     7.542577
      52A1     7.908268    37B2     7.915316    38B2     8.805224
      53A1     8.894141    54A1    15.770454

    Beta Occupied:

       1A1   -20.604979     2A1   -20.570830     3A1    -1.354663
       4A1    -1.050570     1B2    -0.718294     5A1    -0.588375
       1B1    -0.513408     2B2    -0.495060

    Beta Virtual:

       6A1     0.029394     3B2     0.047751     2B1     0.086951
       7A1     0.092128     8A1     0.141421     9A1     0.166981
       3B1     0.170795     4B2     0.180836     5B2     0.191048
      10A1     0.225731     4B1     0.253604     1A2     0.263676
       6B2     0.264974    11A1     0.288882    12A1     0.316828
       5B1     0.328438     7B2     0.380609    13A1     0.386601
      14A1     0.450932     8B2     0.464446     9B2     0.601773
      15A1     0.660393     6B1     0.668215     2A2     0.672592
      16A1     0.674151    17A1     0.717977     3A2     0.722382
      10B2     0.737174     7B1     0.781012    18A1     0.807297
       8B1     0.847016    19A1     0.851982     4A2     0.925590
      20A1     0.928152    11B2     0.936491    12B2     0.953665
      13B2     0.986123     9B1     0.988010    21A1     0.999078
      14B2     1.052802    22A1     1.053652    10B1     1.061907
      11B1     1.141746     5A2     1.177150    23A1     1.193730
      15B2     1.204708    16B2     1.334221    24A1     1.391596
      25A1     1.493447     6A2     1.507628    12B1     1.597293
      26A1     1.701143    27A1     1.818018    17B2     1.823074
      18B2     1.977434    28A1     2.070630    13B1     2.071313
      19B2     2.072024     7A2     2.083605    29A1     2.099428
      14B1     2.101911    30A1     2.155495    20B2     2.187042
       8A2     2.202878    31A1     2.210033    15B1     2.261622
       9A2     2.311636    32A1     2.313133    16B1     2.317249
      21B2     2.325925    17B1     2.449050    33A1     2.483479
      22B2     2.485152    34A1     2.529524    35A1     2.705388
      18B1     2.719189    23B2     2.722860    36A1     2.860220
      24B2     2.860405    10A2     2.879904    25B2     3.694779
      37A1     3.752667    11A2     4.013307    19B1     4.081554
      38A1     4.174412    26B2     4.220461    20B1     4.259727
      21B1     4.294374    27B2     4.294701    12A2     4.382480
      39A1     4.424720    22B1     4.460589    40A1     4.477599
      28B2     4.515589    41A1     4.806180    29B2     4.839687
      30B2     5.141921    13A2     5.143446    31B2     5.247497
      42A1     5.340429    23B1     5.515709    43A1     5.691463
      44A1     6.201714    24B1     6.486364    14A2     6.488261
      32B2     6.488390    45A1     6.495270    25B1     6.500618
      33B2     6.527659    34B2     6.610908    46A1     6.616423
      26B1     6.727900    47A1     6.966638    15A2     7.038872
      48A1     7.042970    27B1     7.087116    35B2     7.099584
      28B1     7.134862    49A1     7.173356    29B1     7.283555
      16A2     7.305875    36B2     7.307174    17A2     7.352585
      50A1     7.440967    51A1     7.543707    52A1     7.908910
      37B2     7.915701    38B2     8.805632    53A1     8.973185
      54A1    15.770810

    Final Occupation by Irrep:
             A1    A2    B1    B2
    DOCC [     5,    0,    1,    2 ]
    SOCC [     1,    0,    1,    0 ]

  @UHF Final Energy:  -150.87339455582611

   => Energetics <=

    Nuclear Repulsion Energy =             23.9818836498807073
    One-Electron Energy =                -256.0328171450216246
    Two-Electron Energy =                  81.1775389393148146
    Total Energy =                       -150.8733945558261098

  UHF NO Occupations:
  HONO-2 :    5 A1 1.9970477
  HONO-1 :    2 B1 1.0000000
  HONO-0 :    6 A1 1.0000000
  LUNO+0 :    7 A1 0.0029523
  LUNO+1 :    3 B2 0.0018002
  LUNO+2 :    8 A1 0.0000251
  LUNO+3 :    9 A1 0.0000024

Computation Completed

Properties will be evaluated at   0.000000,   0.000000,   0.000000 [a0]

Properties computed using the SCF density matrix

  Nuclear Dipole Moment: [e a0]
     X:     0.0000      Y:     0.0000      Z:     3.4573

  Electronic Dipole Moment: [e a0]
     X:     0.0000      Y:     0.0000      Z:    -2.6185

  Dipole Moment: [e a0]
     X:     0.0000      Y:     0.0000      Z:     0.8388     Total:     0.8388

  Dipole Moment: [D]
     X:     0.0000      Y:     0.0000      Z:     2.1321     Total:     2.1321

*** tstop() called on c2-13.compute.lan at Mon Mar  8 17:06:36 2021
Module time:
	user time   =      37.13 seconds =       0.62 minutes
	system time =       2.36 seconds =       0.04 minutes
	total time  =          5 seconds =       0.08 minutes
Total time:
	user time   =      37.13 seconds =       0.62 minutes
	system time =       2.36 seconds =       0.04 minutes
	total time  =          5 seconds =       0.08 minutes
 MINTS: Wrapper to libmints.
   by Justin Turney

   Calculation information:
      Number of threads:                12
      Number of atoms:                   4
      Number of AO shells:              46
      Number of SO shells:              37
      Number of primitives:             82
      Number of atomic orbitals:       160
      Number of basis functions:       138

      Number of irreps:                  4
      Integral cutoff                 0.00e+00
      Number of functions per irrep: [  54   17   29   38 ]

 OEINTS: Overlap, kinetic, potential, dipole, and quadrupole integrals
         stored in file 35.

      Computing two-electron integrals...done
      Computed 11336987 non-zero two-electron integrals.
        Stored in file 33.

*** tstart() called on c2-13.compute.lan
*** at Mon Mar  8 17:06:39 2021

	Wfn Parameters:
	--------------------
	Wavefunction         = CCSD_T
	Number of irreps     = 4
	Number of MOs        = 138
	Number of active MOs = 136
	AO-Basis             = NONE
	Semicanonical        = false
	Reference            = UHF
	Print Level          = 1

	IRREP	# MOs	# FZDC	# DOCC	# SOCC	# VIRT	# FZVR
	-----	-----	------	------	------	------	------
	 A1	   54	    2	    3	    1	    48	    0
	 A2	   17	    0	    0	    0	    17	    0
	 B1	   29	    0	    1	    1	    27	    0
	 B2	   38	    0	    2	    0	    36	    0
	Transforming integrals...
	IWL integrals will be deleted.
	(OO|OO)...
	Presorting SO-basis two-electron integrals.
	Sorting File: SO Ints (nn|nn) nbuckets = 1
	Transforming the one-electron integrals and constructing Fock matrices
	Starting AA/AB first half-transformation.
	Sorting AA/AB half-transformed integrals.
	Starting BB first half-transformation.
	Sorting BB half-transformed integrals.
	First half integral transformation complete.
	Starting AA second half-transformation.
	Starting AB second half-transformation.
	Starting BB second half-transformation.
	Two-electron integral transformation complete.
	(OO|OV)...
	Starting AA second half-transformation.
	Starting AB second half-transformation.
	Starting BB second half-transformation.
	Two-electron integral transformation complete.
	(OO|VV)...
	Starting AA second half-transformation.
	Starting AB second half-transformation.
	Starting BB second half-transformation.
	Two-electron integral transformation complete.
	(OV|OO)...
	Starting AA/AB first half-transformation.
	Sorting AA/AB half-transformed integrals.
	Starting BB first half-transformation.
	Sorting BB half-transformed integrals.
	First half integral transformation complete.
	Starting AA second half-transformation.
	Starting AB second half-transformation.
	Starting BB second half-transformation.
	Two-electron integral transformation complete.
	(OV|OV)...
	Starting AA second half-transformation.
	Starting AB second half-transformation.
	Starting BB second half-transformation.
	Two-electron integral transformation complete.
	(OV|VV)...
	Starting AA second half-transformation.
	Starting AB second half-transformation.
	Starting BB second half-transformation.
	Two-electron integral transformation complete.
	(VV|OO)...
	Starting AA/AB first half-transformation.
	Sorting AA/AB half-transformed integrals.
	Starting BB first half-transformation.
	Sorting BB half-transformed integrals.
	First half integral transformation complete.
	Starting AA second half-transformation.
	Starting AB second half-transformation.
	Starting BB second half-transformation.
	Two-electron integral transformation complete.
	(VV|OV)...
	Starting AA second half-transformation.
	Starting AB second half-transformation.
	Starting BB second half-transformation.
	Two-electron integral transformation complete.
	(VV|VV)...
	Starting AA second half-transformation.
	Starting AB second half-transformation.
	Starting BB second half-transformation.
	Two-electron integral transformation complete.
	Frozen core energy     =   -126.43519983150382

	Size of irrep 0 of <AB|CD> integrals:      5.040 (MW) /     40.320 (MB)
	Size of irrep 1 of <AB|CD> integrals:      3.197 (MW) /     25.576 (MB)
	Size of irrep 2 of <AB|CD> integrals:      3.640 (MW) /     29.124 (MB)
	Size of irrep 3 of <AB|CD> integrals:      4.783 (MW) /     38.264 (MB)
	Total:                                    16.660 (MW) /    133.283 (MB)

	Size of irrep 0 of <ab|cd> integrals:      5.382 (MW) /     43.059 (MB)
	Size of irrep 1 of <ab|cd> integrals:      3.389 (MW) /     27.114 (MB)
	Size of irrep 2 of <ab|cd> integrals:      3.936 (MW) /     31.490 (MB)
	Size of irrep 3 of <ab|cd> integrals:      5.018 (MW) /     40.141 (MB)
	Total:                                    17.726 (MW) /    141.804 (MB)

	Size of irrep 0 of <Ab|Cd> integrals:     22.024 (MW) /    176.194 (MB)
	Size of irrep 1 of <Ab|Cd> integrals:     13.170 (MW) /    105.357 (MB)
	Size of irrep 2 of <Ab|Cd> integrals:     15.140 (MW) /    121.119 (MB)
	Size of irrep 3 of <Ab|Cd> integrals:     19.598 (MW) /    156.787 (MB)
	Total:                                    69.932 (MW) /    559.457 (MB)

	Size of irrep 0 of <IA|BC> integrals:      1.469 (MW) /     11.748 (MB)
	Size of irrep 1 of <IA|BC> integrals:      0.694 (MW) /      5.550 (MB)
	Size of irrep 2 of <IA|BC> integrals:      0.908 (MW) /      7.266 (MB)
	Size of irrep 3 of <IA|BC> integrals:      1.198 (MW) /      9.588 (MB)
	Total:                                     4.269 (MW) /     34.152 (MB)

	Size of irrep 0 of <ia|bc> integrals:      1.178 (MW) /      9.426 (MB)
	Size of irrep 1 of <ia|bc> integrals:      0.527 (MW) /      4.212 (MB)
	Size of irrep 2 of <ia|bc> integrals:      0.663 (MW) /      5.301 (MB)
	Size of irrep 3 of <ia|bc> integrals:      0.999 (MW) /      7.992 (MB)
	Total:                                     3.366 (MW) /     26.931 (MB)

	Size of irrep 0 of <Ia|Bc> integrals:      1.521 (MW) /     12.164 (MB)
	Size of irrep 1 of <Ia|Bc> integrals:      0.711 (MW) /      5.690 (MB)
	Size of irrep 2 of <Ia|Bc> integrals:      0.949 (MW) /      7.595 (MB)
	Size of irrep 3 of <Ia|Bc> integrals:      1.222 (MW) /      9.775 (MB)
	Total:                                     4.403 (MW) /     35.225 (MB)

	Size of irrep 0 of <iA|bC> integrals:      1.140 (MW) /      9.123 (MB)
	Size of irrep 1 of <iA|bC> integrals:      0.512 (MW) /      4.094 (MB)
	Size of irrep 2 of <iA|bC> integrals:      0.634 (MW) /      5.074 (MB)
	Size of irrep 3 of <iA|bC> integrals:      0.978 (MW) /      7.827 (MB)
	Total:                                     3.265 (MW) /     26.118 (MB)

	Size of irrep 0 of tIjAb amplitudes:       0.084 (MW) /      0.676 (MB)
	Size of irrep 1 of tIjAb amplitudes:       0.022 (MW) /      0.174 (MB)
	Size of irrep 2 of tIjAb amplitudes:       0.039 (MW) /      0.311 (MB)
	Size of irrep 3 of tIjAb amplitudes:       0.062 (MW) /      0.496 (MB)
	Total:                                     0.207 (MW) /      1.657 (MB)

	Nuclear Rep. energy          =     23.98188364988071
	SCF energy                   =   -150.87339455582611
	One-electron energy          =    -85.59343680344708
	Two-electron (AA) energy     =     10.39577587420658
	Two-electron (BB) energy     =      5.48185943373367
	Two-electron (AB) energy     =     21.29572312130235
	Two-electron energy          =     37.17335842924260
	Reference energy             =   -150.87339455582759

*** tstop() called on c2-13.compute.lan at Mon Mar  8 17:07:59 2021
Module time:
	user time   =     515.74 seconds =       8.60 minutes
	system time =      39.68 seconds =       0.66 minutes
	total time  =         80 seconds =       1.33 minutes
Total time:
	user time   =     558.19 seconds =       9.30 minutes
	system time =      42.71 seconds =       0.71 minutes
	total time  =         88 seconds =       1.47 minutes
            **************************
            *                        *
            *        CCENERGY        *
            *                        *
            **************************

    Nuclear Rep. energy (wfn)     =   23.981883649880707
    SCF energy          (wfn)     = -150.873394555826110
    Reference energy    (file100) = -150.873394555827588

    Input parameters:
    -----------------
    Wave function   =     CCSD_T
    Reference wfn   =     UHF
    Brueckner       =     No
    Memory (Mbytes) =     4000.0
    Maxiter         =     50
    R_Convergence   =     1.0e-10
    E_Convergence   =     1.0e-10
    Restart         =     Yes
    DIIS            =     Yes
    AO Basis        =     NONE
    ABCD            =     NEW
    Cache Level     =     2
    Cache Type      =     LRU
    Print Level     =     1
    Num. of threads =     12
    # Amps to Print =     10
    Print MP2 Amps? =     No
    Analyze T2 Amps =     No
    Print Pair Ener =     No
    Local CC        =     No
    SCS-MP2         =     False
    SCSN-MP2        =     False
    SCS-CCSD        =     False

MP2 correlation energy -0.4163819529704569
                Solving CC Amplitude Equations
                ------------------------------
  Iter             Energy              RMS        T1Diag      D1Diag    New D1Diag    D2Diag
  ----     ---------------------    ---------   ----------  ----------  ----------   --------
     0        -0.416381952970457    0.000e+00    0.000000    0.000000    0.000000    0.000000
     1        -0.427150400729487    5.706e-02    0.010609    0.000000    0.000000    0.000000
     2        -0.435254922738477    1.706e-02    0.011108    0.000000    0.000000    0.000000
     3        -0.437411363225725    8.820e-03    0.013046    0.000000    0.000000    0.000000
     4        -0.437284392867700    2.703e-03    0.013464    0.000000    0.000000    0.000000
     5        -0.437274960454369    1.411e-03    0.013664    0.000000    0.000000    0.000000
     6        -0.437304368593152    5.327e-04    0.013693    0.000000    0.000000    0.000000
     7        -0.437307356769377    2.166e-04    0.013688    0.000000    0.000000    0.000000
     8        -0.437308275205197    6.691e-05    0.013683    0.000000    0.000000    0.000000
     9        -0.437308967625335    2.411e-05    0.013683    0.000000    0.000000    0.000000
    10        -0.437308056769907    9.252e-06    0.013682    0.000000    0.000000    0.000000
    11        -0.437308223081149    4.082e-06    0.013682    0.000000    0.000000    0.000000
    12        -0.437308183589051    1.497e-06    0.013682    0.000000    0.000000    0.000000
    13        -0.437308192243347    7.588e-07    0.013682    0.000000    0.000000    0.000000
    14        -0.437308215886654    3.201e-07    0.013682    0.000000    0.000000    0.000000
    15        -0.437308217427836    1.152e-07    0.013682    0.000000    0.000000    0.000000
    16        -0.437308218090675    5.322e-08    0.013682    0.000000    0.000000    0.000000
    17        -0.437308218633931    2.018e-08    0.013682    0.000000    0.000000    0.000000
    18        -0.437308218464761    1.096e-08    0.013682    0.000000    0.000000    0.000000

      * MP2 total energy                      = -151.289776508798042
      * CCSD total energy                     = -151.310702774008206
      * CCSD(T) total energy                     = -151.323011685751368
*** Psi4 exiting successfully. Buy a developer a beer!
