                               Psi4 1.3.2 release

  ==> Input File <==

--------------------------------------------------------------------------
memory 4 GB

molecule  {
0 3
O    0.000000000000    0.000000000000   -1.642913919700
H    0.000000000000   -0.754350113400   -1.046825783500
H   -0.000000000000    0.754350113400   -1.046825783500
O    0.000000000000   -0.000000000000    1.774833002000
}
set {
basis aug-cc-pvtz
reference uhf
e_convergence 10
scf_type pk
freeze_core true
}

set ccenergy {
e_convergence 10
r_convergence 10
}

e = energy('ccsd(t)')

print_out('Stephenergy {}'.format(e))

--------------------------------------------------------------------------

    Molecular point group: c2v

    Geometry (in Angstrom), charge = 0, multiplicity = 3:

       Center              X                  Y                   Z               Mass
    ------------   -----------------  -----------------  -----------------  -----------------
         O            0.000000000000     0.000000000000    -1.642913919703    15.994914619570
         H            0.000000000000    -0.754350113400    -1.046825783503     1.007825032230
         H           -0.000000000000     0.754350113400    -1.046825783503     1.007825032230
         O            0.000000000000     0.000000000000     1.774833001997    15.994914619570

  Charge       = 0
  Multiplicity = 3
  Basis Set: AUG-CC-PVTZ
    Blend: AUG-CC-PVTZ

    Orbital Energies [Eh]
    ---------------------

    Alpha Occupied:

       1A1   -20.729001     2A1   -20.562928     3A1    -1.437994
       4A1    -1.347019     1B2    -0.729406     1B1    -0.729015
       2B2    -0.708208     5A1    -0.632371     6A1    -0.580087
       2B1    -0.505320

    Alpha Virtual:

       7A1     0.035504     3B2     0.048543     3B1     0.132076
       8A1     0.134678     9A1     0.148146     4B2     0.158060
       4B1     0.181227     5B2     0.184962    10A1     0.189318
      11A1     0.250575     6B2     0.257715     1A2     0.266053
      12A1     0.273482     5B1     0.319898    13A1     0.367964
       7B2     0.382458    14A1     0.454174     8B2     0.471904
       2A2     0.609127     9B2     0.616218    15A1     0.618522
      16A1     0.619790     6B1     0.640705    17A1     0.717658
       3A2     0.731051    10B2     0.736084     7B1     0.742373
      18A1     0.800699    19A1     0.838510     8B1     0.840596
      11B2     0.853927     9B1     0.915410    20A1     0.926722
       4A2     0.934300    12B2     0.941875    21A1     0.958589
      10B1     0.961481    13B2     0.963163    22A1     1.049009
      14B2     1.054343    11B1     1.123770     5A2     1.185905
      23A1     1.186708    15B2     1.256788    24A1     1.262827
      16B2     1.275060    25A1     1.347277     6A2     1.511562
      12B1     1.591892    26A1     1.633816    27A1     1.828501
      17B2     1.829975    18B2     1.972242    13B1     1.978554
      19B2     1.990133    28A1     2.005342     7A2     2.011258
      14B1     2.026300    29A1     2.036459     8A2     2.040156
      20B2     2.081935    30A1     2.086552    15B1     2.120336
      31A1     2.146798    21B2     2.262359    16B1     2.279265
       9A2     2.329654    32A1     2.339285    33A1     2.402745
      34A1     2.488112    22B2     2.492593    17B1     2.506566
      35A1     2.575458    23B2     2.689395    18B1     2.718839
      36A1     2.820304    10A2     2.888963    24B2     2.902484
      25B2     3.667374    37A1     3.753560    11A2     4.031432
      19B1     4.050778    26B2     4.085179    20B1     4.101933
      38A1     4.149548    27B2     4.277954    21B1     4.283550
      39A1     4.368203    12A2     4.383335    40A1     4.406937
      22B1     4.416712    28B2     4.530379    41A1     4.749559
      29B2     4.853074    13A2     5.150353    30B2     5.164651
      31B2     5.251924    42A1     5.370259    23B1     5.528478
      43A1     5.675639    44A1     6.199988    24B1     6.315113
      32B2     6.315975    14A2     6.370267    45A1     6.375613
      25B1     6.402305    33B2     6.451157    46A1     6.480981
      34B2     6.528073    26B1     6.738034    15A2     6.819206
      47A1     6.820652    27B1     6.927789    48A1     6.930487
      35B2     6.957478    49A1     7.033404    28B1     7.136139
      29B1     7.260844    16A2     7.318600    36B2     7.344729
      50A1     7.358017    17A2     7.358356    51A1     7.548287
      52A1     7.900049    37B2     7.937748    53A1     8.533727
      38B2     8.813956    54A1    15.735213

    Beta Occupied:

       1A1   -20.650437     2A1   -20.562967     3A1    -1.347196
       4A1    -1.095699     1B2    -0.708351     5A1    -0.584305
       6A1    -0.538540     1B1    -0.505311

    Beta Virtual:

       2B2     0.035349     7A1     0.036626     2B1     0.049861
       3B2     0.069586     8A1     0.140837     9A1     0.150711
       3B1     0.160431     4B2     0.180837    10A1     0.189637
       5B2     0.222021     4B1     0.225342    11A1     0.259585
       6B2     0.263199     1A2     0.266372    12A1     0.274954
       5B1     0.320554    13A1     0.371352     7B2     0.387578
      14A1     0.455316     8B2     0.472427     9B2     0.618644
      15A1     0.620996     2A2     0.641342    16A1     0.651488
       6B1     0.652762    17A1     0.718983     3A2     0.732473
       7B1     0.744413    10B2     0.747521    18A1     0.809521
      19A1     0.851189     8B1     0.912163     9B1     0.930740
      20A1     0.932109     4A2     0.935725    11B2     0.940278
      12B2     0.944722    21A1     0.959529    13B2     1.010141
      10B1     1.025294    22A1     1.049605    14B2     1.057153
      11B1     1.128965     5A2     1.186618    23A1     1.190784
      15B2     1.269604    16B2     1.279065    24A1     1.282335
      25A1     1.403946     6A2     1.511673    12B1     1.591998
      26A1     1.646583    27A1     1.829650    17B2     1.831216
      18B2     1.979725    13B1     2.016641    19B2     2.021558
      28A1     2.030567     7A2     2.041977    14B1     2.046638
      29A1     2.100042    20B2     2.126085    30A1     2.156543
       8A2     2.182456    15B1     2.189365    31A1     2.195812
      16B1     2.283614    21B2     2.307936     9A2     2.332642
      32A1     2.359716    33A1     2.413819    34A1     2.492339
      22B2     2.497302    17B1     2.511247    35A1     2.578372
      23B2     2.689561    18B1     2.718929    36A1     2.820626
      10A2     2.888986    24B2     2.904513    25B2     3.667413
      37A1     3.753696    11A2     4.031520    19B1     4.101227
      38A1     4.164163    20B1     4.223629    26B2     4.241552
      21B1     4.283574    27B2     4.291742    12A2     4.383383
      39A1     4.390686    22B1     4.416904    40A1     4.417356
      28B2     4.530593    41A1     4.749716    29B2     4.853171
      13A2     5.150371    30B2     5.164656    31B2     5.251948
      42A1     5.370711    23B1     5.528482    43A1     5.675975
      44A1     6.201738    24B1     6.423959    32B2     6.424673
      14A2     6.446924    45A1     6.450609    25B1     6.457565
      33B2     6.495403    46A1     6.529750    34B2     6.540462
      26B1     6.744489    47A1     6.930583    15A2     7.008221
      48A1     7.010072    27B1     7.035148    35B2     7.066541
      49A1     7.114261    28B1     7.136439    29B1     7.260800
      16A2     7.318642    36B2     7.346759    17A2     7.358416
      50A1     7.358720    51A1     7.549019    52A1     7.900281
      37B2     7.937732    53A1     8.618764    38B2     8.813894
      54A1    15.735207

    Final Occupation by Irrep:
             A1    A2    B1    B2
    DOCC [     6,    0,    1,    1 ]
    SOCC [     0,    0,    1,    1 ]

  @UHF Final Energy:  -150.87359313020934

   => Energetics <=

    Nuclear Repulsion Energy =             21.9652816000450457
    One-Electron Energy =                -251.7235940780935266
    Two-Electron Energy =                  78.8847193478391375
    Total Energy =                       -150.8735931302093434

  UHF NO Occupations:
  HONO-2 :    6 A1 1.9970744
  HONO-1 :    2 B2 1.0000000
  HONO-0 :    2 B1 1.0000000
  LUNO+0 :    7 A1 0.0029256
  LUNO+1 :    8 A1 0.0016860
  LUNO+2 :    9 A1 0.0000024
  LUNO+3 :   10 A1 0.0000004

Computation Completed

Properties will be evaluated at   0.000000,   0.000000,   0.000000 [a0]

Properties computed using the SCF density matrix

  Nuclear Dipole Moment: [e a0]
     X:     0.0000      Y:     0.0000      Z:    -1.9621

  Electronic Dipole Moment: [e a0]
     X:     0.0000      Y:     0.0000      Z:     2.7953

  Dipole Moment: [e a0]
     X:     0.0000      Y:     0.0000      Z:     0.8332     Total:     0.8332

  Dipole Moment: [D]
     X:     0.0000      Y:     0.0000      Z:     2.1179     Total:     2.1179

*** tstop() called on b1-8.compute.lan at Wed Mar 10 09:44:28 2021
Module time:
	user time   =      34.08 seconds =       0.57 minutes
	system time =       0.99 seconds =       0.02 minutes
	total time  =          4 seconds =       0.07 minutes
Total time:
	user time   =      34.08 seconds =       0.57 minutes
	system time =       0.99 seconds =       0.02 minutes
	total time  =          4 seconds =       0.07 minutes
 MINTS: Wrapper to libmints.
   by Justin Turney

   Calculation information:
      Number of threads:                12
      Number of atoms:                   4
      Number of AO shells:              46
      Number of SO shells:              37
      Number of primitives:             82
      Number of atomic orbitals:       160
      Number of basis functions:       138

      Number of irreps:                  4
      Integral cutoff                 0.00e+00
      Number of functions per irrep: [  54   17   29   38 ]

 OEINTS: Overlap, kinetic, potential, dipole, and quadrupole integrals
         stored in file 35.

      Computing two-electron integrals...done
      Computed 11337628 non-zero two-electron integrals.
        Stored in file 33.

*** tstart() called on b1-8.compute.lan
*** at Wed Mar 10 09:44:30 2021

	Wfn Parameters:
	--------------------
	Wavefunction         = CCSD_T
	Number of irreps     = 4
	Number of MOs        = 138
	Number of active MOs = 136
	AO-Basis             = NONE
	Semicanonical        = false
	Reference            = UHF
	Print Level          = 1

	IRREP	# MOs	# FZDC	# DOCC	# SOCC	# VIRT	# FZVR
	-----	-----	------	------	------	------	------
	 A1	   54	    2	    4	    0	    48	    0
	 A2	   17	    0	    0	    0	    17	    0
	 B1	   29	    0	    1	    1	    27	    0
	 B2	   38	    0	    1	    1	    36	    0
	Transforming integrals...
	IWL integrals will be deleted.
	(OO|OO)...
	Presorting SO-basis two-electron integrals.
	Sorting File: SO Ints (nn|nn) nbuckets = 1
	Transforming the one-electron integrals and constructing Fock matrices
	Starting AA/AB first half-transformation.
	Sorting AA/AB half-transformed integrals.
	Starting BB first half-transformation.
	Sorting BB half-transformed integrals.
	First half integral transformation complete.
	Starting AA second half-transformation.
	Starting AB second half-transformation.
	Starting BB second half-transformation.
	Two-electron integral transformation complete.
	(OO|OV)...
	Starting AA second half-transformation.
	Starting AB second half-transformation.
	Starting BB second half-transformation.
	Two-electron integral transformation complete.
	(OO|VV)...
	Starting AA second half-transformation.
	Starting AB second half-transformation.
	Starting BB second half-transformation.
	Two-electron integral transformation complete.
	(OV|OO)...
	Starting AA/AB first half-transformation.
	Sorting AA/AB half-transformed integrals.
	Starting BB first half-transformation.
	Sorting BB half-transformed integrals.
	First half integral transformation complete.
	Starting AA second half-transformation.
	Starting AB second half-transformation.
	Starting BB second half-transformation.
	Two-electron integral transformation complete.
	(OV|OV)...
	Starting AA second half-transformation.
	Starting AB second half-transformation.
	Starting BB second half-transformation.
	Two-electron integral transformation complete.
	(OV|VV)...
	Starting AA second half-transformation.
	Starting AB second half-transformation.
	Starting BB second half-transformation.
	Two-electron integral transformation complete.
	(VV|OO)...
	Starting AA/AB first half-transformation.
	Sorting AA/AB half-transformed integrals.
	Starting BB first half-transformation.
	Sorting BB half-transformed integrals.
	First half integral transformation complete.
	Starting AA second half-transformation.
	Starting AB second half-transformation.
	Starting BB second half-transformation.
	Two-electron integral transformation complete.
	(VV|OV)...
	Starting AA second half-transformation.
	Starting AB second half-transformation.
	Starting BB second half-transformation.
	Two-electron integral transformation complete.
	(VV|VV)...
	Starting AA second half-transformation.
	Starting AB second half-transformation.
	Starting BB second half-transformation.
	Two-electron integral transformation complete.
	Frozen core energy     =   -125.47262695541383

	Size of irrep 0 of <AB|CD> integrals:      5.040 (MW) /     40.320 (MB)
	Size of irrep 1 of <AB|CD> integrals:      3.197 (MW) /     25.576 (MB)
	Size of irrep 2 of <AB|CD> integrals:      3.640 (MW) /     29.124 (MB)
	Size of irrep 3 of <AB|CD> integrals:      4.783 (MW) /     38.264 (MB)
	Total:                                    16.660 (MW) /    133.283 (MB)

	Size of irrep 0 of <ab|cd> integrals:      5.327 (MW) /     42.615 (MB)
	Size of irrep 1 of <ab|cd> integrals:      3.430 (MW) /     27.439 (MB)
	Size of irrep 2 of <ab|cd> integrals:      3.893 (MW) /     31.142 (MB)
	Size of irrep 3 of <ab|cd> integrals:      5.072 (MW) /     40.572 (MB)
	Total:                                    17.721 (MW) /    141.768 (MB)

	Size of irrep 0 of <Ab|Cd> integrals:     21.912 (MW) /    175.294 (MB)
	Size of irrep 1 of <Ab|Cd> integrals:     13.242 (MW) /    105.939 (MB)
	Size of irrep 2 of <Ab|Cd> integrals:     15.062 (MW) /    120.497 (MB)
	Size of irrep 3 of <Ab|Cd> integrals:     19.705 (MW) /    157.638 (MB)
	Total:                                    69.921 (MW) /    559.368 (MB)

	Size of irrep 0 of <IA|BC> integrals:      1.469 (MW) /     11.748 (MB)
	Size of irrep 1 of <IA|BC> integrals:      0.694 (MW) /      5.550 (MB)
	Size of irrep 2 of <IA|BC> integrals:      0.908 (MW) /      7.266 (MB)
	Size of irrep 3 of <IA|BC> integrals:      1.198 (MW) /      9.588 (MB)
	Total:                                     4.269 (MW) /     34.152 (MB)

	Size of irrep 0 of <ia|bc> integrals:      1.220 (MW) /      9.758 (MB)
	Size of irrep 1 of <ia|bc> integrals:      0.493 (MW) /      3.941 (MB)
	Size of irrep 2 of <ia|bc> integrals:      0.698 (MW) /      5.588 (MB)
	Size of irrep 3 of <ia|bc> integrals:      0.959 (MW) /      7.675 (MB)
	Total:                                     3.370 (MW) /     26.961 (MB)

	Size of irrep 0 of <Ia|Bc> integrals:      1.507 (MW) /     12.058 (MB)
	Size of irrep 1 of <Ia|Bc> integrals:      0.721 (MW) /      5.764 (MB)
	Size of irrep 2 of <Ia|Bc> integrals:      0.939 (MW) /      7.514 (MB)
	Size of irrep 3 of <Ia|Bc> integrals:      1.234 (MW) /      9.872 (MB)
	Total:                                     4.401 (MW) /     35.208 (MB)

	Size of irrep 0 of <iA|bC> integrals:      1.194 (MW) /      9.549 (MB)
	Size of irrep 1 of <iA|bC> integrals:      0.477 (MW) /      3.814 (MB)
	Size of irrep 2 of <iA|bC> integrals:      0.671 (MW) /      5.371 (MB)
	Size of irrep 3 of <iA|bC> integrals:      0.928 (MW) /      7.422 (MB)
	Total:                                     3.270 (MW) /     26.156 (MB)

	Size of irrep 0 of tIjAb amplitudes:       0.094 (MW) /      0.749 (MB)
	Size of irrep 1 of tIjAb amplitudes:       0.015 (MW) /      0.116 (MB)
	Size of irrep 2 of tIjAb amplitudes:       0.047 (MW) /      0.373 (MB)
	Size of irrep 3 of tIjAb amplitudes:       0.053 (MW) /      0.426 (MB)
	Total:                                     0.208 (MW) /      1.664 (MB)

	Nuclear Rep. energy          =     21.96528160004505
	SCF energy                   =   -150.87359313020934
	One-electron energy          =    -83.28367257708237
	Two-electron (AA) energy     =      9.95250637649652
	Two-electron (BB) energy     =      5.29630653910535
	Two-electron (AB) energy     =     20.66861188663819
	Two-electron energy          =     35.91742480224006
	Reference energy             =   -150.87359313021108

*** tstop() called on b1-8.compute.lan at Wed Mar 10 09:45:00 2021
Module time:
	user time   =     252.67 seconds =       4.21 minutes
	system time =       9.74 seconds =       0.16 minutes
	total time  =         30 seconds =       0.50 minutes
Total time:
	user time   =     291.76 seconds =       4.86 minutes
	system time =      11.03 seconds =       0.18 minutes
	total time  =         36 seconds =       0.60 minutes
            **************************
            *                        *
            *        CCENERGY        *
            *                        *
            **************************

    Nuclear Rep. energy (wfn)     =   21.965281600045046
    SCF energy          (wfn)     = -150.873593130209343
    Reference energy    (file100) = -150.873593130211077

    Input parameters:
    -----------------
    Wave function   =     CCSD_T
    Reference wfn   =     UHF
    Brueckner       =     No
    Memory (Mbytes) =     4000.0
    Maxiter         =     50
    R_Convergence   =     1.0e-10
    E_Convergence   =     1.0e-10
    Restart         =     Yes
    DIIS            =     Yes
    AO Basis        =     NONE
    ABCD            =     NEW
    Cache Level     =     2
    Cache Type      =     LRU
    Print Level     =     1
    Num. of threads =     12
    # Amps to Print =     10
    Print MP2 Amps? =     No
    Analyze T2 Amps =     No
    Print Pair Ener =     No
    Local CC        =     No
    SCS-MP2         =     False
    SCSN-MP2        =     False
    SCS-CCSD        =     False

MP2 correlation energy -0.4157214774430774
                Solving CC Amplitude Equations
                ------------------------------
  Iter             Energy              RMS        T1Diag      D1Diag    New D1Diag    D2Diag
  ----     ---------------------    ---------   ----------  ----------  ----------   --------
     0        -0.415721477443077    0.000e+00    0.000000    0.000000    0.000000    0.000000
     1        -0.426580946821626    5.638e-02    0.010362    0.000000    0.000000    0.000000
     2        -0.434670094820135    1.679e-02    0.010864    0.000000    0.000000    0.000000
     3        -0.436768084528429    8.408e-03    0.012680    0.000000    0.000000    0.000000
     4        -0.436644143655631    2.492e-03    0.013024    0.000000    0.000000    0.000000
     5        -0.436632036255011    1.259e-03    0.013167    0.000000    0.000000    0.000000
     6        -0.436657500512227    4.984e-04    0.013181    0.000000    0.000000    0.000000
     7        -0.436661649937087    2.253e-04    0.013170    0.000000    0.000000    0.000000
     8        -0.436662393185081    6.827e-05    0.013164    0.000000    0.000000    0.000000
     9        -0.436663611753718    2.805e-05    0.013164    0.000000    0.000000    0.000000
    10        -0.436662435426965    1.066e-05    0.013164    0.000000    0.000000    0.000000
    11        -0.436662544954801    5.312e-06    0.013164    0.000000    0.000000    0.000000
    12        -0.436662505564294    2.598e-06    0.013164    0.000000    0.000000    0.000000
    13        -0.436662499565660    1.390e-06    0.013164    0.000000    0.000000    0.000000
    14        -0.436662527154808    6.474e-07    0.013164    0.000000    0.000000    0.000000
    15        -0.436662525811496    1.729e-07    0.013164    0.000000    0.000000    0.000000
    16        -0.436662525681986    1.057e-07    0.013164    0.000000    0.000000    0.000000
    17        -0.436662526488079    2.987e-08    0.013164    0.000000    0.000000    0.000000
    18        -0.436662526071167    1.365e-08    0.013164    0.000000    0.000000    0.000000

      * MP2 total energy                      = -151.289314607654148
      * CCSD total energy                     = -151.310255656016039
      * CCSD(T) total energy                     = -151.322474237330454
*** Psi4 exiting successfully. Buy a developer a beer!
