                               Psi4 1.4a2.dev191

  ==> Input File <==

--------------------------------------------------------------------------
memory 10 GB
molecule {
0 3
O
H 1 R1
O 1 R2 2 A1
H 3 R1 1 A1 2 D1
R1 = 0.9771897111
R2 = 100.0
A1 = 90.0
D1 = 180.0
}
set {
basis aug-cc-pvdz
e_convergence 10
g_convergence gau_verytight
reference uhf
scf_type pk
mp2_type conv
}

set ccenergy {
e_convergence 10
r_convergence 10
}

energy("ccsd")

--------------------------------------------------------------------------

    Molecular point group: c2h

    Geometry (in Angstrom), charge = 0, multiplicity = 3:

       Center              X                  Y                   Z               Mass
    ------------   -----------------  -----------------  -----------------  -----------------
         O           50.000000000000     0.000000000000     0.000000000000    15.994914619570
         H           50.000000000000    -0.977189711100     0.000000000000     1.007825032230
         O          -50.000000000000     0.000000000000     0.000000000000    15.994914619570
         H          -50.000000000000     0.977189711100     0.000000000000     1.007825032230

  Charge       = 0
  Multiplicity = 3
  Basis Set: AUG-CC-PVDZ
    Blend: AUG-CC-PVDZ

    Orbital Energies [Eh]
    ---------------------

    Alpha Occupied:

       1Ag   -20.651964     1Bu   -20.651964     2Ag    -1.390932
       2Bu    -1.390932     3Ag    -0.682168     3Bu    -0.682168
       1Au    -0.656842     1Bg    -0.656842     4Ag    -0.561297
       4Bu    -0.561297

    Alpha Virtual:

       5Ag     0.035595     5Bu     0.035595     6Ag     0.178356
       6Bu     0.178356     2Au     0.185301     2Bg     0.185301
       7Ag     0.198228     7Bu     0.198228     8Ag     0.225064
       8Bu     0.225064     9Ag     0.315356     9Bu     0.315356
       3Au     0.385610     3Bg     0.385610    10Ag     0.395886
      10Bu     0.395886    11Ag     0.624306    11Bu     0.624306
      12Ag     0.838608    12Bu     0.838608     4Au     0.956697
       4Bg     0.956697    13Ag     0.958388    13Bu     0.958388
       5Au     1.086646     5Bg     1.086646    14Ag     1.117034
      14Bu     1.117034    15Ag     1.316234    15Bu     1.316234
       6Au     1.327164     6Bg     1.327164    16Ag     1.386042
      16Bu     1.386042    17Ag     1.659304    17Bu     1.659304
       7Au     2.009066     7Bg     2.009066    18Ag     2.026694
      18Bu     2.026694    19Ag     2.479102    19Bu     2.479102
      20Ag     2.759270    20Bu     2.759270    21Ag     3.484286
      21Bu     3.484286     8Au     3.484428     8Bg     3.484428
       9Au     3.590956     9Bg     3.590956    22Ag     3.651225
      22Bu     3.651225    23Ag     4.085253    23Bu     4.085253

    Beta Occupied:

       1Ag   -20.611020     1Bu   -20.611020     2Ag    -1.232614
       2Bu    -1.232614     3Ag    -0.637947     3Bu    -0.637947
       4Ag    -0.511576     4Bu    -0.511576

    Beta Virtual:

       5Ag     0.037079     5Bu     0.037079     1Au     0.064676
       1Bg     0.064676     6Ag     0.181854     6Bu     0.181854
       7Ag     0.201695     7Bu     0.201695     8Ag     0.231897
       8Bu     0.231897     2Au     0.258154     2Bg     0.258154
       9Ag     0.320498     9Bu     0.320498    10Ag     0.395397
      10Bu     0.395397     3Au     0.408516     3Bg     0.408516
      11Ag     0.639146    11Bu     0.639146    12Ag     0.848519
      12Bu     0.848519     4Au     0.995376     4Bg     0.995376
      13Ag     0.996448    13Bu     0.996448    14Ag     1.119282
      14Bu     1.119282     5Au     1.132116     5Bg     1.132116
      15Ag     1.331329    15Bu     1.331329    16Ag     1.409301
      16Bu     1.409301     6Au     1.497901     6Bg     1.497901
      17Ag     1.682447    17Bu     1.682447     7Au     2.016633
       7Bg     2.016633    18Ag     2.023248    18Bu     2.023248
      19Ag     2.511058    19Bu     2.511058    20Ag     2.775193
      20Bu     2.775193     8Au     3.584740     8Bg     3.584740
      21Ag     3.585442    21Bu     3.585442    22Ag     3.670025
      22Bu     3.670025     9Au     3.687848     9Bg     3.687848
      23Ag     4.119597    23Bu     4.119597

    Final Occupation by Irrep:
             Ag    Bg    Au    Bu
    DOCC [     4,    0,    0,    4 ]
    SOCC [     0,    1,    1,    0 ]

  @UHF Final Energy:  -150.80677106801147

   => Energetics <=

    Nuclear Repulsion Energy =              9.0931030262107022
    One-Electron Energy =                -225.9270254589788465
    Two-Electron Energy =                  66.0271513647566906
    Total Energy =                       -150.8067710680114430

  UHF NO Occupations:
  HONO-2 :    4 Ag 1.9980038
  HONO-1 :    1 Au 1.0000000
  HONO-0 :    1 Bg 1.0000000
  LUNO+0 :    5 Bu 0.0019962
  LUNO+1 :    5 Ag 0.0019962
  LUNO+2 :    6 Bu 0.0007750
  LUNO+3 :    6 Ag 0.0007750

Computation Completed

Properties will be evaluated at   0.000000,   0.000000,   0.000000 [a0]

Properties computed using the SCF density matrix

  Nuclear Dipole Moment: [e a0]
     X:     0.0000      Y:     0.0000      Z:     0.0000

  Electronic Dipole Moment: [e a0]
     X:     0.0000      Y:     0.0000      Z:     0.0000

  Dipole Moment: [e a0]
     X:     0.0000      Y:     0.0000      Z:     0.0000     Total:     0.0000

  Dipole Moment: [D]
     X:     0.0000      Y:     0.0000      Z:     0.0000     Total:     0.0000

*** tstop() called on c2-10.compute.lan at Tue Feb 23 14:21:36 2021
Module time:
	user time   =       0.93 seconds =       0.02 minutes
	system time =       0.03 seconds =       0.00 minutes
	total time  =          1 seconds =       0.02 minutes
Total time:
	user time   =       0.93 seconds =       0.02 minutes
	system time =       0.03 seconds =       0.00 minutes
	total time  =          1 seconds =       0.02 minutes
 MINTS: Wrapper to libmints.
   by Justin Turney

   Calculation information:
      Number of threads:                 1
      Number of atoms:                   4
      Number of AO shells:              28
      Number of SO shells:              14
      Number of primitives:             64
      Number of atomic orbitals:        68
      Number of basis functions:        64

      Number of irreps:                  4
      Integral cutoff                 0.00e+00
      Number of functions per irrep: [  23    9    9   23 ]

 OEINTS: Overlap, kinetic, potential, dipole, and quadrupole integrals
         stored in file 35.

      Computing two-electron integrals...done
      Computed 491638 non-zero two-electron integrals.
        Stored in file 33.

*** tstart() called on c2-10.compute.lan
*** at Tue Feb 23 14:21:37 2021

	Wfn Parameters:
	--------------------
	Wavefunction         = CCSD
	Number of irreps     = 4
	Number of MOs        = 64
	Number of active MOs = 64
	AO-Basis             = NONE
	Semicanonical        = false
	Reference            = UHF
	Print Level          = 1

	IRREP	# MOs	# FZDC	# DOCC	# SOCC	# VIRT	# FZVR
	-----	-----	------	------	------	------	------
	 Ag	   23	    0	    4	    0	    19	    0
	 Bg	   9	    0	    0	    1	    8	    0
	 Au	   9	    0	    0	    1	    8	    0
	 Bu	   23	    0	    4	    0	    19	    0
	Transforming integrals...
	IWL integrals will be deleted.
	(OO|OO)...
	Presorting SO-basis two-electron integrals.
	Sorting File: SO Ints (nn|nn) nbuckets = 1
	Transforming the one-electron integrals and constructing Fock matrices
	Starting AA/AB first half-transformation.
	Sorting AA/AB half-transformed integrals.
	Starting BB first half-transformation.
	Sorting BB half-transformed integrals.
	First half integral transformation complete.
	Starting AA second half-transformation.
	Starting AB second half-transformation.
	Starting BB second half-transformation.
	Two-electron integral transformation complete.
	(OO|OV)...
	Starting AA second half-transformation.
	Starting AB second half-transformation.
	Starting BB second half-transformation.
	Two-electron integral transformation complete.
	(OO|VV)...
	Starting AA second half-transformation.
	Starting AB second half-transformation.
	Starting BB second half-transformation.
	Two-electron integral transformation complete.
	(OV|OO)...
	Starting AA/AB first half-transformation.
	Sorting AA/AB half-transformed integrals.
	Starting BB first half-transformation.
	Sorting BB half-transformed integrals.
	First half integral transformation complete.
	Starting AA second half-transformation.
	Starting AB second half-transformation.
	Starting BB second half-transformation.
	Two-electron integral transformation complete.
	(OV|OV)...
	Starting AA second half-transformation.
	Starting AB second half-transformation.
	Starting BB second half-transformation.
	Two-electron integral transformation complete.
	(OV|VV)...
	Starting AA second half-transformation.
	Starting AB second half-transformation.
	Starting BB second half-transformation.
	Two-electron integral transformation complete.
	(VV|OO)...
	Starting AA/AB first half-transformation.
	Sorting AA/AB half-transformed integrals.
	Starting BB first half-transformation.
	Sorting BB half-transformed integrals.
	First half integral transformation complete.
	Starting AA second half-transformation.
	Starting AB second half-transformation.
	Starting BB second half-transformation.
	Two-electron integral transformation complete.
	(VV|OV)...
	Starting AA second half-transformation.
	Starting AB second half-transformation.
	Starting BB second half-transformation.
	Two-electron integral transformation complete.
	(VV|VV)...
	Starting AA second half-transformation.
	Starting AB second half-transformation.
	Starting BB second half-transformation.
	Two-electron integral transformation complete.
	Frozen core energy     =      0.00000000000000

	Size of irrep 0 of <AB|CD> integrals:      0.158 (MW) /      1.267 (MB)
	Size of irrep 1 of <AB|CD> integrals:      0.092 (MW) /      0.739 (MB)
	Size of irrep 2 of <AB|CD> integrals:      0.092 (MW) /      0.739 (MB)
	Size of irrep 3 of <AB|CD> integrals:      0.181 (MW) /      1.445 (MB)
	Total:                                     0.524 (MW) /      4.191 (MB)

	Size of irrep 0 of <ab|cd> integrals:      0.171 (MW) /      1.371 (MB)
	Size of irrep 1 of <ab|cd> integrals:      0.117 (MW) /      0.936 (MB)
	Size of irrep 2 of <ab|cd> integrals:      0.117 (MW) /      0.936 (MB)
	Size of irrep 3 of <ab|cd> integrals:      0.195 (MW) /      1.563 (MB)
	Total:                                     0.601 (MW) /      4.806 (MB)

	Size of irrep 0 of <Ab|Cd> integrals:      0.750 (MW) /      6.000 (MB)
	Size of irrep 1 of <Ab|Cd> integrals:      0.417 (MW) /      3.339 (MB)
	Size of irrep 2 of <Ab|Cd> integrals:      0.417 (MW) /      3.339 (MB)
	Size of irrep 3 of <Ab|Cd> integrals:      0.750 (MW) /      6.000 (MB)
	Total:                                     2.335 (MW) /     18.676 (MB)

	Size of irrep 0 of <IA|BC> integrals:      0.143 (MW) /      1.142 (MB)
	Size of irrep 1 of <IA|BC> integrals:      0.062 (MW) /      0.496 (MB)
	Size of irrep 2 of <IA|BC> integrals:      0.062 (MW) /      0.496 (MB)
	Size of irrep 3 of <IA|BC> integrals:      0.143 (MW) /      1.142 (MB)
	Total:                                     0.410 (MW) /      3.277 (MB)

	Size of irrep 0 of <ia|bc> integrals:      0.134 (MW) /      1.075 (MB)
	Size of irrep 1 of <ia|bc> integrals:      0.049 (MW) /      0.394 (MB)
	Size of irrep 2 of <ia|bc> integrals:      0.049 (MW) /      0.394 (MB)
	Size of irrep 3 of <ia|bc> integrals:      0.134 (MW) /      1.075 (MB)
	Total:                                     0.367 (MW) /      2.938 (MB)

	Size of irrep 0 of <Ia|Bc> integrals:      0.147 (MW) /      1.178 (MB)
	Size of irrep 1 of <Ia|Bc> integrals:      0.071 (MW) /      0.568 (MB)
	Size of irrep 2 of <Ia|Bc> integrals:      0.071 (MW) /      0.568 (MB)
	Size of irrep 3 of <Ia|Bc> integrals:      0.147 (MW) /      1.178 (MB)
	Total:                                     0.437 (MW) /      3.492 (MB)

	Size of irrep 0 of <iA|bC> integrals:      0.132 (MW) /      1.053 (MB)
	Size of irrep 1 of <iA|bC> integrals:      0.041 (MW) /      0.331 (MB)
	Size of irrep 2 of <iA|bC> integrals:      0.041 (MW) /      0.331 (MB)
	Size of irrep 3 of <iA|bC> integrals:      0.132 (MW) /      1.053 (MB)
	Total:                                     0.346 (MW) /      2.768 (MB)

	Size of irrep 0 of tIjAb amplitudes:       0.028 (MW) /      0.222 (MB)
	Size of irrep 1 of tIjAb amplitudes:       0.005 (MW) /      0.041 (MB)
	Size of irrep 2 of tIjAb amplitudes:       0.005 (MW) /      0.041 (MB)
	Size of irrep 3 of tIjAb amplitudes:       0.028 (MW) /      0.222 (MB)
	Total:                                     0.066 (MW) /      0.526 (MB)

	Nuclear Rep. energy          =      9.09310302621070
	SCF energy                   =   -150.80677106801147
	One-electron energy          =   -225.92702541494180
	Two-electron (AA) energy     =     15.58754676372572
	Two-electron (BB) energy     =      9.32434371423563
	Two-electron (AB) energy     =     41.11526084275812
	Two-electron energy          =     66.02715132071947
	Reference energy             =   -150.80677106801161

*** tstop() called on c2-10.compute.lan at Tue Feb 23 14:21:38 2021
Module time:
	user time   =       0.57 seconds =       0.01 minutes
	system time =       0.40 seconds =       0.01 minutes
	total time  =          1 seconds =       0.02 minutes
Total time:
	user time   =       1.72 seconds =       0.03 minutes
	system time =       0.45 seconds =       0.01 minutes
	total time  =          3 seconds =       0.05 minutes
            **************************
            *                        *
            *        CCENERGY        *
            *                        *
            **************************

    Nuclear Rep. energy (wfn)     =    9.093103026210702
    SCF energy          (wfn)     = -150.806771068011471
    Reference energy    (file100) = -150.806771068011614

    Input parameters:
    -----------------
    Wave function   =     CCSD
    Reference wfn   =     UHF
    Brueckner       =     No
    Memory (Mbytes) =     10000.0
    Maxiter         =     50
    R_Convergence   =     1.0e-10
    E_Convergence   =     1.0e-10
    Restart         =     Yes
    DIIS            =     Yes
    AO Basis        =     NONE
    ABCD            =     NEW
    Cache Level     =     2
    Cache Type      =     LRU
    Print Level     =     1
    Num. of threads =     1
    # Amps to Print =     10
    Print MP2 Amps? =     No
    Analyze T2 Amps =     No
    Print Pair Ener =     No
    Local CC        =     No
    SCS-MP2         =     False
    SCSN-MP2        =     False
    SCS-CCSD        =     False

MP2 correlation energy -0.3286660864464276
                Solving CC Amplitude Equations
                ------------------------------
  Iter             Energy              RMS        T1Diag      D1Diag    New D1Diag    D2Diag
  ----     ---------------------    ---------   ----------  ----------  ----------   --------
     0        -0.328666086446428    0.000e+00    0.000000    0.000000    0.000000    0.000000
     1        -0.348534830818825    6.114e-02    0.011316    0.000000    0.000000    0.000000
     2        -0.356220961141772    1.893e-02    0.012848    0.000000    0.000000    0.000000
     3        -0.358465340023206    9.731e-03    0.014980    0.000000    0.000000    0.000000
     4        -0.358430650348201    3.271e-03    0.015370    0.000000    0.000000    0.000000
     5        -0.358445152340172    1.345e-03    0.015372    0.000000    0.000000    0.000000
     6        -0.358493179164756    5.080e-04    0.015355    0.000000    0.000000    0.000000
     7        -0.358497558123981    1.425e-04    0.015342    0.000000    0.000000    0.000000
     8        -0.358497345662886    4.629e-05    0.015340    0.000000    0.000000    0.000000
     9        -0.358497089763866    1.947e-05    0.015341    0.000000    0.000000    0.000000
    10        -0.358497043194209    8.138e-06    0.015341    0.000000    0.000000    0.000000
    11        -0.358497101083703    2.822e-06    0.015341    0.000000    0.000000    0.000000
    12        -0.358497169843157    1.053e-06    0.015341    0.000000    0.000000    0.000000
    13        -0.358497183753766    4.301e-07    0.015341    0.000000    0.000000    0.000000
    14        -0.358497188996919    1.755e-07    0.015341    0.000000    0.000000    0.000000
    15        -0.358497189060205    7.052e-08    0.015341    0.000000    0.000000    0.000000
    16        -0.358497189913854    3.410e-08    0.015341    0.000000    0.000000    0.000000
    17        -0.358497190461290    1.517e-08    0.015341    0.000000    0.000000    0.000000
    18        -0.358497190820894    6.664e-09    0.015341    0.000000    0.000000    0.000000
    19        -0.358497190992761    2.828e-09    0.015341    0.000000    0.000000    0.000000
    20        -0.358497191048001    1.209e-09    0.015341    0.000000    0.000000    0.000000
    21        -0.358497191054532    4.928e-10    0.015341    0.000000    0.000000    0.000000
    22        -0.358497191049501    2.083e-10    0.015341    0.000000    0.000000    0.000000
    23        -0.358497191047836    9.271e-11    0.015341    0.000000    0.000000    0.000000

    Iterations converged.

    Largest TIA Amplitudes:
              3   2        -0.0204759634
              9  37        -0.0204759634
              4  19        -0.0182650250
              5  27        -0.0182650250
              3   5        -0.0116400575
              9  40        -0.0116400575
              4  20        -0.0106260493
              5  28        -0.0106260493
              2   4         0.0096904924
              8  39         0.0096904924

    Largest Tia Amplitudes:
              3   2        -0.0186268026
              7  39        -0.0186268026
              3   5        -0.0114354470
              7  42        -0.0114354470
              2   4         0.0075359391
              6  41         0.0075359391
              1   4        -0.0056642314
              5  41        -0.0056642314
              1   8        -0.0055650996
              5  45        -0.0055650996

    Largest TIJAB Amplitudes:
      5   3  46  23         0.0104039923
      9   4  31  11         0.0104039923
      4   3  46  31         0.0104039923
      9   5  23  11         0.0104039923
      4   3  23  11        -0.0104039922
      9   5  46  31        -0.0104039922
      5   3  31  11        -0.0104039922
      9   4  46  23        -0.0104039922
      5   3  29   8         0.0078376711
      9   4  43  21         0.0078376711

    Largest Tijab Amplitudes:
      6   3  46   7         0.0062705425
      7   2  44   9         0.0062705425
      3   2   9   7        -0.0062705315
      7   6  46  44        -0.0062705315

      * MP2 total energy                      = -151.135437154458032
      * CCSD total energy                     = -151.165268259059445
*** Psi4 exiting successfully. Buy a developer a beer!
