                               Psi4 1.3.2 release

  ==> Input File <==

--------------------------------------------------------------------------
memory 4 GB

molecule  {
0 3
O    0.000000000000    0.000000000000   -1.647450055281
H    0.000000000000   -0.752418562268   -1.049260865463
H   -0.000000000000    0.752418562268   -1.049260865463
O    0.000000000000    0.000000000000    1.779676002178
}
set {
basis aug-cc-pvtz
reference uhf
e_convergence 10
scf_type pk
freeze_core true
}

set ccenergy {
e_convergence 10
r_convergence 10
}

e = energy('ccsd(t)')

print_out('Stephenergy {}'.format(e))

--------------------------------------------------------------------------

    Molecular point group: c2v

    Geometry (in Angstrom), charge = 0, multiplicity = 3:

       Center              X                  Y                   Z               Mass
    ------------   -----------------  -----------------  -----------------  -----------------
         O           -0.000000000000     0.000000000000    -1.647450055281    15.994914619570
         H            0.000000000000    -0.752418562268    -1.049260865463     1.007825032230
         H           -0.000000000000     0.752418562268    -1.049260865463     1.007825032230
         O           -0.000000000000     0.000000000000     1.779676002178    15.994914619570

  Charge       = 0
  Multiplicity = 3
  Basis Set: AUG-CC-PVTZ
    Blend: AUG-CC-PVTZ

    Orbital Energies [Eh]
    ---------------------

    Alpha Occupied:

       1A1   -20.729051     2A1   -20.563080     3A1    -1.438030
       4A1    -1.347409     1B2    -0.729433     1B1    -0.729054
       2B2    -0.707696     5A1    -0.632380     6A1    -0.580848
       2B1    -0.505472

    Alpha Virtual:

       7A1     0.035496     3B2     0.048568     3B1     0.132062
       8A1     0.134711     9A1     0.148024     4B2     0.157986
       4B1     0.181139     5B2     0.185051    10A1     0.189305
      11A1     0.250270     6B2     0.257483     1A2     0.266196
      12A1     0.273523     5B1     0.319513    13A1     0.367460
       7B2     0.382434    14A1     0.454476     8B2     0.471932
       2A2     0.609058     9B2     0.615649    15A1     0.618663
      16A1     0.619608     6B1     0.640667    17A1     0.717823
       3A2     0.731317    10B2     0.736085     7B1     0.741841
      18A1     0.800278    19A1     0.838194     8B1     0.840715
      11B2     0.854122     9B1     0.915286    20A1     0.925026
       4A2     0.934239    12B2     0.941998    21A1     0.958265
      10B1     0.960783    13B2     0.961977    22A1     1.049352
      14B2     1.054265    11B1     1.123035     5A2     1.186190
      23A1     1.187401    15B2     1.255450    24A1     1.262115
      16B2     1.275150    25A1     1.345692     6A2     1.511591
      12B1     1.591092    26A1     1.630175    27A1     1.828827
      17B2     1.832456    18B2     1.971981    13B1     1.978520
      19B2     1.989475    28A1     2.005251     7A2     2.011032
      14B1     2.026067    29A1     2.036185     8A2     2.039763
      20B2     2.081373    30A1     2.086956    15B1     2.119742
      31A1     2.145934    21B2     2.260865    16B1     2.278874
       9A2     2.329341    32A1     2.337228    33A1     2.402216
      34A1     2.488697    22B2     2.492238    17B1     2.506360
      35A1     2.575879    23B2     2.688334    18B1     2.718634
      36A1     2.822086    10A2     2.889116    24B2     2.899152
      25B2     3.668502    37A1     3.751914    11A2     4.033159
      19B1     4.050635    26B2     4.084697    20B1     4.101728
      38A1     4.146109    21B1     4.279324    27B2     4.279941
      39A1     4.363983    12A2     4.383331    40A1     4.404439
      22B1     4.417150    28B2     4.532712    41A1     4.751198
      29B2     4.855602    13A2     5.149972    30B2     5.169753
      31B2     5.248654    42A1     5.370817    23B1     5.530624
      43A1     5.671453    44A1     6.203433    24B1     6.315069
      32B2     6.315907    14A2     6.369983    45A1     6.375156
      25B1     6.401962    33B2     6.450093    46A1     6.480467
      34B2     6.526337    26B1     6.737507    15A2     6.819055
      47A1     6.820503    27B1     6.927483    48A1     6.934816
      35B2     6.956695    49A1     7.033350    28B1     7.135841
      29B1     7.261312    16A2     7.319918    36B2     7.339271
      17A2     7.357661    50A1     7.360621    51A1     7.547351
      52A1     7.895922    37B2     7.941071    53A1     8.530771
      38B2     8.817636    54A1    15.739729

    Beta Occupied:

       1A1   -20.650484     2A1   -20.563118     3A1    -1.347582
       4A1    -1.095727     1B2    -0.707830     5A1    -0.584936
       6A1    -0.538662     1B1    -0.505463

    Beta Virtual:

       2B2     0.035366     7A1     0.036619     2B1     0.049822
       3B2     0.069567     8A1     0.140874     9A1     0.150609
       3B1     0.160426     4B2     0.180923    10A1     0.189621
       5B2     0.221877     4B1     0.225250    11A1     0.259302
       6B2     0.263061     1A2     0.266511    12A1     0.274924
       5B1     0.320157    13A1     0.370848     7B2     0.387499
      14A1     0.455611     8B2     0.472467     9B2     0.618097
      15A1     0.621175     2A2     0.641292    16A1     0.651253
       6B1     0.652793    17A1     0.719151     3A2     0.732739
       7B1     0.743807    10B2     0.747507    18A1     0.808826
      19A1     0.851234     8B1     0.911842    20A1     0.930348
       9B1     0.930783     4A2     0.935630    11B2     0.940082
      12B2     0.944787    21A1     0.959204    13B2     1.009377
      10B1     1.024978    22A1     1.049948    14B2     1.057128
      11B1     1.128102     5A2     1.186900    23A1     1.191482
      15B2     1.268763    16B2     1.278590    24A1     1.280936
      25A1     1.403002     6A2     1.511697    12B1     1.591195
      26A1     1.642966    27A1     1.829959    17B2     1.833738
      18B2     1.979015    13B1     2.016615    19B2     2.021336
      28A1     2.030498     7A2     2.041544    14B1     2.046314
      29A1     2.100929    20B2     2.125253    30A1     2.155058
       8A2     2.182339    15B1     2.189070    31A1     2.195348
      16B1     2.283022    21B2     2.306762     9A2     2.332270
      32A1     2.358255    33A1     2.413017    34A1     2.492789
      22B2     2.496842    17B1     2.511036    35A1     2.578910
      23B2     2.688493    18B1     2.718726    36A1     2.822399
      10A2     2.889139    24B2     2.901196    25B2     3.668545
      37A1     3.752070    11A2     4.033245    19B1     4.101057
      38A1     4.160348    20B1     4.223475    26B2     4.242051
      21B1     4.279345    27B2     4.292800    12A2     4.383378
      39A1     4.386985    40A1     4.414700    22B1     4.417325
      28B2     4.532904    41A1     4.751346    29B2     4.855694
      13A2     5.149989    30B2     5.169758    31B2     5.248676
      42A1     5.371273    23B1     5.530628    43A1     5.671789
      44A1     6.205162    24B1     6.423919    32B2     6.424606
      14A2     6.446644    45A1     6.450190    25B1     6.457243
      33B2     6.494169    46A1     6.529251    34B2     6.538888
      26B1     6.743969    47A1     6.934953    15A2     7.008082
      48A1     7.009909    27B1     7.034885    35B2     7.065716
      49A1     7.114246    28B1     7.136093    29B1     7.261268
      16A2     7.319958    36B2     7.341388    17A2     7.357721
      50A1     7.361280    51A1     7.548029    52A1     7.896164
      37B2     7.941055    53A1     8.615870    38B2     8.817575
      54A1    15.739723

    Final Occupation by Irrep:
             A1    A2    B1    B2
    DOCC [     6,    0,    1,    1 ]
    SOCC [     0,    0,    1,    1 ]

  @UHF Final Energy:  -150.87359227855720

   => Energetics <=

    Nuclear Repulsion Energy =             21.9345033436227581
    One-Electron Energy =                -251.6599360241291379
    Two-Electron Energy =                  78.8518404019491754
    Total Energy =                       -150.8735922785571972

  UHF NO Occupations:
  HONO-2 :    6 A1 1.9970740
  HONO-1 :    2 B2 1.0000000
  HONO-0 :    2 B1 1.0000000
  LUNO+0 :    7 A1 0.0029260
  LUNO+1 :    8 A1 0.0016878
  LUNO+2 :    9 A1 0.0000024
  LUNO+3 :   10 A1 0.0000004

Computation Completed

Properties will be evaluated at   0.000000,   0.000000,   0.000000 [a0]

Properties computed using the SCF density matrix

  Nuclear Dipole Moment: [e a0]
     X:    -0.0000      Y:     0.0000      Z:    -1.9667

  Electronic Dipole Moment: [e a0]
     X:     0.0000      Y:     0.0000      Z:     2.8019

  Dipole Moment: [e a0]
     X:    -0.0000      Y:     0.0000      Z:     0.8353     Total:     0.8353

  Dipole Moment: [D]
     X:    -0.0000      Y:     0.0000      Z:     2.1231     Total:     2.1231

*** tstop() called on c5-1.compute.lan at Wed Mar 10 10:52:46 2021
Module time:
	user time   =      43.85 seconds =       0.73 minutes
	system time =       0.68 seconds =       0.01 minutes
	total time  =          5 seconds =       0.08 minutes
Total time:
	user time   =      43.85 seconds =       0.73 minutes
	system time =       0.68 seconds =       0.01 minutes
	total time  =          5 seconds =       0.08 minutes
 MINTS: Wrapper to libmints.
   by Justin Turney

   Calculation information:
      Number of threads:                12
      Number of atoms:                   4
      Number of AO shells:              46
      Number of SO shells:              37
      Number of primitives:             82
      Number of atomic orbitals:       160
      Number of basis functions:       138

      Number of irreps:                  4
      Integral cutoff                 0.00e+00
      Number of functions per irrep: [  54   17   29   38 ]

 OEINTS: Overlap, kinetic, potential, dipole, and quadrupole integrals
         stored in file 35.

      Computing two-electron integrals...done
      Computed 11530634 non-zero two-electron integrals.
        Stored in file 33.

*** tstart() called on c5-1.compute.lan
*** at Wed Mar 10 10:52:48 2021

	Wfn Parameters:
	--------------------
	Wavefunction         = CCSD_T
	Number of irreps     = 4
	Number of MOs        = 138
	Number of active MOs = 136
	AO-Basis             = NONE
	Semicanonical        = false
	Reference            = UHF
	Print Level          = 1

	IRREP	# MOs	# FZDC	# DOCC	# SOCC	# VIRT	# FZVR
	-----	-----	------	------	------	------	------
	 A1	   54	    2	    4	    0	    48	    0
	 A2	   17	    0	    0	    0	    17	    0
	 B1	   29	    0	    1	    1	    27	    0
	 B2	   38	    0	    1	    1	    36	    0
	Transforming integrals...
	IWL integrals will be deleted.
	(OO|OO)...
	Presorting SO-basis two-electron integrals.
	Sorting File: SO Ints (nn|nn) nbuckets = 1
	Transforming the one-electron integrals and constructing Fock matrices
	Starting AA/AB first half-transformation.
	Sorting AA/AB half-transformed integrals.
	Starting BB first half-transformation.
	Sorting BB half-transformed integrals.
	First half integral transformation complete.
	Starting AA second half-transformation.
	Starting AB second half-transformation.
	Starting BB second half-transformation.
	Two-electron integral transformation complete.
	(OO|OV)...
	Starting AA second half-transformation.
	Starting AB second half-transformation.
	Starting BB second half-transformation.
	Two-electron integral transformation complete.
	(OO|VV)...
	Starting AA second half-transformation.
	Starting AB second half-transformation.
	Starting BB second half-transformation.
	Two-electron integral transformation complete.
	(OV|OO)...
	Starting AA/AB first half-transformation.
	Sorting AA/AB half-transformed integrals.
	Starting BB first half-transformation.
	Sorting BB half-transformed integrals.
	First half integral transformation complete.
	Starting AA second half-transformation.
	Starting AB second half-transformation.
	Starting BB second half-transformation.
	Two-electron integral transformation complete.
	(OV|OV)...
	Starting AA second half-transformation.
	Starting AB second half-transformation.
	Starting BB second half-transformation.
	Two-electron integral transformation complete.
	(OV|VV)...
	Starting AA second half-transformation.
	Starting AB second half-transformation.
	Starting BB second half-transformation.
	Two-electron integral transformation complete.
	(VV|OO)...
	Starting AA/AB first half-transformation.
	Sorting AA/AB half-transformed integrals.
	Starting BB first half-transformation.
	Sorting BB half-transformed integrals.
	First half integral transformation complete.
	Starting AA second half-transformation.
	Starting AB second half-transformation.
	Starting BB second half-transformation.
	Two-electron integral transformation complete.
	(VV|OV)...
	Starting AA second half-transformation.
	Starting AB second half-transformation.
	Starting BB second half-transformation.
	Two-electron integral transformation complete.
	(VV|VV)...
	Starting AA second half-transformation.
	Starting AB second half-transformation.
	Starting BB second half-transformation.
	Two-electron integral transformation complete.
	Frozen core energy     =   -125.45962372018676

	Size of irrep 0 of <AB|CD> integrals:      5.040 (MW) /     40.320 (MB)
	Size of irrep 1 of <AB|CD> integrals:      3.197 (MW) /     25.576 (MB)
	Size of irrep 2 of <AB|CD> integrals:      3.640 (MW) /     29.124 (MB)
	Size of irrep 3 of <AB|CD> integrals:      4.783 (MW) /     38.264 (MB)
	Total:                                    16.660 (MW) /    133.283 (MB)

	Size of irrep 0 of <ab|cd> integrals:      5.327 (MW) /     42.615 (MB)
	Size of irrep 1 of <ab|cd> integrals:      3.430 (MW) /     27.439 (MB)
	Size of irrep 2 of <ab|cd> integrals:      3.893 (MW) /     31.142 (MB)
	Size of irrep 3 of <ab|cd> integrals:      5.072 (MW) /     40.572 (MB)
	Total:                                    17.721 (MW) /    141.768 (MB)

	Size of irrep 0 of <Ab|Cd> integrals:     21.912 (MW) /    175.294 (MB)
	Size of irrep 1 of <Ab|Cd> integrals:     13.242 (MW) /    105.939 (MB)
	Size of irrep 2 of <Ab|Cd> integrals:     15.062 (MW) /    120.497 (MB)
	Size of irrep 3 of <Ab|Cd> integrals:     19.705 (MW) /    157.638 (MB)
	Total:                                    69.921 (MW) /    559.368 (MB)

	Size of irrep 0 of <IA|BC> integrals:      1.469 (MW) /     11.748 (MB)
	Size of irrep 1 of <IA|BC> integrals:      0.694 (MW) /      5.550 (MB)
	Size of irrep 2 of <IA|BC> integrals:      0.908 (MW) /      7.266 (MB)
	Size of irrep 3 of <IA|BC> integrals:      1.198 (MW) /      9.588 (MB)
	Total:                                     4.269 (MW) /     34.152 (MB)

	Size of irrep 0 of <ia|bc> integrals:      1.220 (MW) /      9.758 (MB)
	Size of irrep 1 of <ia|bc> integrals:      0.493 (MW) /      3.941 (MB)
	Size of irrep 2 of <ia|bc> integrals:      0.698 (MW) /      5.588 (MB)
	Size of irrep 3 of <ia|bc> integrals:      0.959 (MW) /      7.675 (MB)
	Total:                                     3.370 (MW) /     26.961 (MB)

	Size of irrep 0 of <Ia|Bc> integrals:      1.507 (MW) /     12.058 (MB)
	Size of irrep 1 of <Ia|Bc> integrals:      0.721 (MW) /      5.764 (MB)
	Size of irrep 2 of <Ia|Bc> integrals:      0.939 (MW) /      7.514 (MB)
	Size of irrep 3 of <Ia|Bc> integrals:      1.234 (MW) /      9.872 (MB)
	Total:                                     4.401 (MW) /     35.208 (MB)

	Size of irrep 0 of <iA|bC> integrals:      1.194 (MW) /      9.549 (MB)
	Size of irrep 1 of <iA|bC> integrals:      0.477 (MW) /      3.814 (MB)
	Size of irrep 2 of <iA|bC> integrals:      0.671 (MW) /      5.371 (MB)
	Size of irrep 3 of <iA|bC> integrals:      0.928 (MW) /      7.422 (MB)
	Total:                                     3.270 (MW) /     26.156 (MB)

	Size of irrep 0 of tIjAb amplitudes:       0.094 (MW) /      0.749 (MB)
	Size of irrep 1 of tIjAb amplitudes:       0.015 (MW) /      0.116 (MB)
	Size of irrep 2 of tIjAb amplitudes:       0.047 (MW) /      0.373 (MB)
	Size of irrep 3 of tIjAb amplitudes:       0.053 (MW) /      0.426 (MB)
	Total:                                     0.208 (MW) /      1.664 (MB)

	Nuclear Rep. energy          =     21.93450334362276
	SCF energy                   =   -150.87359227855720
	One-electron energy          =    -83.24642059637638
	Two-electron (AA) energy     =      9.94599679862064
	Two-electron (BB) energy     =      5.29302077204362
	Two-electron (AB) energy     =     20.65893112371710
	Two-electron energy          =     35.89794869438137
	Reference energy             =   -150.87359227855902

*** tstop() called on c5-1.compute.lan at Wed Mar 10 10:53:07 2021
Module time:
	user time   =      49.26 seconds =       0.82 minutes
	system time =       9.54 seconds =       0.16 minutes
	total time  =         19 seconds =       0.32 minutes
Total time:
	user time   =      98.81 seconds =       1.65 minutes
	system time =      10.59 seconds =       0.18 minutes
	total time  =         26 seconds =       0.43 minutes
            **************************
            *                        *
            *        CCENERGY        *
            *                        *
            **************************

    Nuclear Rep. energy (wfn)     =   21.934503343622758
    SCF energy          (wfn)     = -150.873592278557197
    Reference energy    (file100) = -150.873592278559016

    Input parameters:
    -----------------
    Wave function   =     CCSD_T
    Reference wfn   =     UHF
    Brueckner       =     No
    Memory (Mbytes) =     4000.0
    Maxiter         =     50
    R_Convergence   =     1.0e-10
    E_Convergence   =     1.0e-10
    Restart         =     Yes
    DIIS            =     Yes
    AO Basis        =     NONE
    ABCD            =     NEW
    Cache Level     =     2
    Cache Type      =     LRU
    Print Level     =     1
    Num. of threads =     12
    # Amps to Print =     10
    Print MP2 Amps? =     No
    Analyze T2 Amps =     No
    Print Pair Ener =     No
    Local CC        =     No
    SCS-MP2         =     False
    SCSN-MP2        =     False
    SCS-CCSD        =     False

MP2 correlation energy -0.4157241860013713
                Solving CC Amplitude Equations
                ------------------------------
  Iter             Energy              RMS        T1Diag      D1Diag    New D1Diag    D2Diag
  ----     ---------------------    ---------   ----------  ----------  ----------   --------
     0        -0.415724186001371    0.000e+00    0.000000    0.000000    0.000000    0.000000
     1        -0.426580489430791    5.638e-02    0.010361    0.000000    0.000000    0.000000
     2        -0.434669653960604    1.679e-02    0.010863    0.000000    0.000000    0.000000
     3        -0.436767579541355    8.406e-03    0.012679    0.000000    0.000000    0.000000
     4        -0.436643614271394    2.492e-03    0.013022    0.000000    0.000000    0.000000
     5        -0.436631593897230    1.259e-03    0.013165    0.000000    0.000000    0.000000
     6        -0.436657043229994    4.984e-04    0.013178    0.000000    0.000000    0.000000
     7        -0.436661173414351    2.246e-04    0.013168    0.000000    0.000000    0.000000
     8        -0.436661923117424    6.820e-05    0.013162    0.000000    0.000000    0.000000
     9        -0.436663137519489    2.786e-05    0.013162    0.000000    0.000000    0.000000
    10        -0.436661966587646    1.054e-05    0.013161    0.000000    0.000000    0.000000
    11        -0.436662076828057    5.204e-06    0.013161    0.000000    0.000000    0.000000
    12        -0.436662037572965    2.533e-06    0.013161    0.000000    0.000000    0.000000
    13        -0.436662031122313    1.359e-06    0.013162    0.000000    0.000000    0.000000
    14        -0.436662057963533    6.377e-07    0.013162    0.000000    0.000000    0.000000
    15        -0.436662056562852    1.722e-07    0.013162    0.000000    0.000000    0.000000
    16        -0.436662056433852    1.051e-07    0.013162    0.000000    0.000000    0.000000
    17        -0.436662057231070    2.976e-08    0.013162    0.000000    0.000000    0.000000
    18        -0.436662056812619    1.370e-08    0.013162    0.000000    0.000000    0.000000

      * MP2 total energy                      = -151.289316464560386
      * CCSD total energy                     = -151.310254335099756
      * CCSD(T) total energy                     = -151.322471834937375
*** Psi4 exiting successfully. Buy a developer a beer!
