                               Psi4 1.3.2 release

  ==> Input File <==

--------------------------------------------------------------------------
memory 4 GB

molecule  {
0 3
O   -1.519781476630   -0.028422932441    0.000000000000
H   -0.557001043717   -0.002211863180    0.000000000000
H   -1.780199460280    0.898951222658    0.000000000000
O    1.667046356080   -0.028079799543    0.000000000000
}
set {
basis aug-cc-pvtz
reference uhf
e_convergence 10
scf_type pk
freeze_core true
}

set ccenergy {
e_convergence 10
r_convergence 10
}

e = energy('ccsd(t)')

print_out('Stephenergy {}'.format(e))

--------------------------------------------------------------------------

    Molecular point group: cs

    Geometry (in Angstrom), charge = 0, multiplicity = 3:

       Center              X                  Y                   Z               Mass
    ------------   -----------------  -----------------  -----------------  -----------------
         O           -1.519781476630    -0.028422932441     0.000000000000    15.994914619570
         H           -0.557001043717    -0.002211863180     0.000000000000     1.007825032230
         H           -1.780199460280     0.898951222658     0.000000000000     1.007825032230
         O            1.667046356080    -0.028079799543     0.000000000000    15.994914619570

  Charge       = 0
  Multiplicity = 3
  Basis Set: AUG-CC-PVTZ
    Blend: AUG-CC-PVTZ

    Orbital Energies [Eh]
    ---------------------

    Alpha Occupied:

       1Ap   -20.734934     2Ap   -20.558723     3Ap    -1.444261
       4Ap    -1.342304     5Ap    -0.734794     1App   -0.734643
       6Ap    -0.708741     7Ap    -0.636826     8Ap    -0.574789
       2App   -0.501561

    Alpha Virtual:

       9Ap     0.034552    10Ap     0.053288    11Ap     0.127520
       3App    0.131588    12Ap     0.148022    13Ap     0.161164
      14Ap     0.183459     4App    0.186349    15Ap     0.211763
      16Ap     0.241590    17Ap     0.271715     5App    0.282581
      18Ap     0.293567     6App    0.323270    19Ap     0.372158
      20Ap     0.393182    21Ap     0.459713    22Ap     0.559316
       7App    0.600115    23Ap     0.608764    24Ap     0.643255
      25Ap     0.668874    26Ap     0.712093     8App    0.713109
       9App    0.734756    10App    0.747465    27Ap     0.766059
      28Ap     0.798096    11App    0.824732    29Ap     0.851694
      30Ap     0.865762    12App    0.883588    31Ap     0.923313
      13App    0.942237    32Ap     0.944290    33Ap     0.956526
      14App    0.983329    34Ap     0.985626    35Ap     1.042685
      36Ap     1.128136    37Ap     1.168433    15App    1.177315
      38Ap     1.194101    16App    1.261502    39Ap     1.272775
      40Ap     1.324605    17App    1.527949    41Ap     1.555762
      18App    1.600049    42Ap     1.690547    43Ap     1.819684
      44Ap     1.826903    19App    1.975624    45Ap     1.975655
      46Ap     1.993722    20App    2.011242    47Ap     2.017430
      21App    2.048699    48Ap     2.060220    22App    2.122986
      49Ap     2.164964    50Ap     2.166515    23App    2.211598
      24App    2.294720    51Ap     2.302192    52Ap     2.330524
      53Ap     2.415274    25App    2.449820    54Ap     2.460674
      26App    2.524485    55Ap     2.535701    56Ap     2.632314
      57Ap     2.672072    27App    2.728967    58Ap     2.751104
      59Ap     2.863953    60Ap     2.941796    28App    2.945600
      61Ap     3.696683    62Ap     3.894039    29App    4.035689
      30App    4.058372    63Ap     4.075953    31App    4.171783
      64Ap     4.198885    65Ap     4.273079    32App    4.296592
      66Ap     4.376884    33App    4.392708    67Ap     4.436008
      34App    4.439573    68Ap     4.578312    69Ap     4.782016
      70Ap     4.960243    35App    5.152267    71Ap     5.181002
      72Ap     5.303373    73Ap     5.370960    36App    5.524801
      74Ap     5.687044    75Ap     6.197715    37App    6.310252
      76Ap     6.310294    38App    6.372945    77Ap     6.375686
      39App    6.520897    78Ap     6.526043    79Ap     6.557066
      80Ap     6.635654    40App    6.724654    81Ap     6.812345
      41App    6.818511    82Ap     6.914347    42App    6.933948
      83Ap     6.967099    84Ap     7.049624    43App    7.145926
      44App    7.274185    85Ap     7.318546    45App    7.325668
      86Ap     7.360392    46App    7.441600    87Ap     7.655230
      88Ap     7.945360    89Ap     7.963294    90Ap     8.807570
      91Ap     9.397777    92Ap    16.499499

    Beta Occupied:

       1Ap   -20.656154     2Ap   -20.558863     3Ap    -1.342911
       4Ap    -1.101809     5Ap    -0.707703     6Ap    -0.581276
       7Ap    -0.542159     1App   -0.501615

    Beta Virtual:

       8Ap     0.034211     9Ap     0.046212     2App    0.047673
      10Ap     0.057477    11Ap     0.144207    12Ap     0.150999
       3App    0.160513    13Ap     0.179793    14Ap     0.210094
      15Ap     0.218153     4App    0.225949    16Ap     0.251223
      17Ap     0.273712     5App    0.282908    18Ap     0.295800
       6App    0.327024    19Ap     0.375976    20Ap     0.403967
      21Ap     0.460454    22Ap     0.562313     7App    0.632429
      23Ap     0.639045    24Ap     0.646297    25Ap     0.671931
      26Ap     0.712751     8App    0.726887     9App    0.735906
      10App    0.748930    27Ap     0.785053    28Ap     0.810592
      29Ap     0.856612    11App    0.867672    30Ap     0.918524
      12App    0.936167    31Ap     0.943816    13App    0.949395
      32Ap     0.954377    33Ap     0.973524    34Ap     1.015600
      14App    1.024785    35Ap     1.046914    36Ap     1.154743
      37Ap     1.176290    15App    1.180634    38Ap     1.219168
      16App    1.272608    39Ap     1.275004    40Ap     1.335295
      17App    1.528768    41Ap     1.561360    18App    1.601684
      42Ap     1.717667    43Ap     1.824862    44Ap     1.834399
      45Ap     2.000690    19App    2.013722    46Ap     2.013888
      20App    2.053281    47Ap     2.065384    21App    2.170882
      48Ap     2.179431    22App    2.179673    49Ap     2.204765
      50Ap     2.229131    23App    2.249088    24App    2.296658
      51Ap     2.317618    52Ap     2.344838    53Ap     2.422382
      25App    2.452248    54Ap     2.461509    26App    2.533149
      55Ap     2.542929    56Ap     2.638478    57Ap     2.683419
      27App    2.730119    58Ap     2.757853    59Ap     2.868568
      60Ap     2.944634    28App    2.946286    61Ap     3.697126
      62Ap     3.896925    29App    4.035915    30App    4.145122
      63Ap     4.178094    64Ap     4.243289    31App    4.254882
      65Ap     4.295132    32App    4.297008    66Ap     4.390965
      33App    4.392892    34App    4.441096    67Ap     4.467778
      68Ap     4.579301    69Ap     4.783350    70Ap     4.962571
      35App    5.152253    71Ap     5.181512    72Ap     5.303596
      73Ap     5.372039    36App    5.524889    74Ap     5.687682
      75Ap     6.198188    37App    6.419208    76Ap     6.419232
      38App    6.448318    77Ap     6.451126    78Ap     6.532378
      39App    6.575806    79Ap     6.606837    80Ap     6.681718
      40App    6.729025    81Ap     6.916587    41App    7.004538
      82Ap     7.005559    42App    7.042170    83Ap     7.071578
      84Ap     7.129875    43App    7.148299    44App    7.274568
      85Ap     7.318738    45App    7.326566    86Ap     7.360852
      46App    7.442044    87Ap     7.656513    88Ap     7.945789
      89Ap     7.963415    90Ap     8.809949    91Ap     9.472388
      92Ap    16.500069

    Final Occupation by Irrep:
             Ap   App
    DOCC [     7,    1 ]
    SOCC [     1,    1 ]

  @UHF Final Energy:  -150.87429916539909

   => Energetics <=

    Nuclear Repulsion Energy =             22.8552623874913579
    One-Electron Energy =                -253.4950578093041429
    Two-Electron Energy =                  79.7654962564136838
    Total Energy =                       -150.8742991653990941

  UHF NO Occupations:
  HONO-2 :    7 Ap 1.9970292
  HONO-1 :    8 Ap 1.0000000
  HONO-0 :    2App 1.0000000
  LUNO+0 :    9 Ap 0.0029708
  LUNO+1 :   10 Ap 0.0017125
  LUNO+2 :   11 Ap 0.0000024
  LUNO+3 :   12 Ap 0.0000019

Computation Completed

Properties will be evaluated at   0.000000,   0.000000,   0.000000 [a0]

Properties computed using the SCF density matrix

  Nuclear Dipole Moment: [e a0]
     X:    -2.1903      Y:     0.8404      Z:     0.0000

  Electronic Dipole Moment: [e a0]
     X:     2.7516      Y:    -0.2183      Z:     0.0000

  Dipole Moment: [e a0]
     X:     0.5613      Y:     0.6221      Z:     0.0000     Total:     0.8379

  Dipole Moment: [D]
     X:     1.4266      Y:     1.5812      Z:     0.0000     Total:     2.1297

*** tstop() called on c4-4.compute.lan at Tue Mar  9 15:13:35 2021
Module time:
	user time   =      60.35 seconds =       1.01 minutes
	system time =       0.98 seconds =       0.02 minutes
	total time  =          5 seconds =       0.08 minutes
Total time:
	user time   =      60.35 seconds =       1.01 minutes
	system time =       0.98 seconds =       0.02 minutes
	total time  =          5 seconds =       0.08 minutes
 MINTS: Wrapper to libmints.
   by Justin Turney

   Calculation information:
      Number of threads:                12
      Number of atoms:                   4
      Number of AO shells:              46
      Number of SO shells:              46
      Number of primitives:             82
      Number of atomic orbitals:       160
      Number of basis functions:       138

      Number of irreps:                  2
      Integral cutoff                 0.00e+00
      Number of functions per irrep: [  92   46 ]

 OEINTS: Overlap, kinetic, potential, dipole, and quadrupole integrals
         stored in file 35.

      Computing two-electron integrals...done
      Computed 22938305 non-zero two-electron integrals.
        Stored in file 33.

*** tstart() called on c4-4.compute.lan
*** at Tue Mar  9 15:13:38 2021

	Wfn Parameters:
	--------------------
	Wavefunction         = CCSD_T
	Number of irreps     = 2
	Number of MOs        = 138
	Number of active MOs = 136
	AO-Basis             = NONE
	Semicanonical        = false
	Reference            = UHF
	Print Level          = 1

	IRREP	# MOs	# FZDC	# DOCC	# SOCC	# VIRT	# FZVR
	-----	-----	------	------	------	------	------
	 Ap	   92	    2	    5	    1	    84	    0
	 App	   46	    0	    1	    1	    44	    0
	Transforming integrals...
	IWL integrals will be deleted.
	(OO|OO)...
	Presorting SO-basis two-electron integrals.
	Sorting File: SO Ints (nn|nn) nbuckets = 1
	Transforming the one-electron integrals and constructing Fock matrices
	Starting AA/AB first half-transformation.
	Sorting AA/AB half-transformed integrals.
	Starting BB first half-transformation.
	Sorting BB half-transformed integrals.
	First half integral transformation complete.
	Starting AA second half-transformation.
	Starting AB second half-transformation.
	Starting BB second half-transformation.
	Two-electron integral transformation complete.
	(OO|OV)...
	Starting AA second half-transformation.
	Starting AB second half-transformation.
	Starting BB second half-transformation.
	Two-electron integral transformation complete.
	(OO|VV)...
	Starting AA second half-transformation.
	Starting AB second half-transformation.
	Starting BB second half-transformation.
	Two-electron integral transformation complete.
	(OV|OO)...
	Starting AA/AB first half-transformation.
	Sorting AA/AB half-transformed integrals.
	Starting BB first half-transformation.
	Sorting BB half-transformed integrals.
	First half integral transformation complete.
	Starting AA second half-transformation.
	Starting AB second half-transformation.
	Starting BB second half-transformation.
	Two-electron integral transformation complete.
	(OV|OV)...
	Starting AA second half-transformation.
	Starting AB second half-transformation.
	Starting BB second half-transformation.
	Two-electron integral transformation complete.
	(OV|VV)...
	Starting AA second half-transformation.
	Starting AB second half-transformation.
	Starting BB second half-transformation.
	Two-electron integral transformation complete.
	(VV|OO)...
	Starting AA/AB first half-transformation.
	Sorting AA/AB half-transformed integrals.
	Starting BB first half-transformation.
	Sorting BB half-transformed integrals.
	First half integral transformation complete.
	Starting AA second half-transformation.
	Starting AB second half-transformation.
	Starting BB second half-transformation.
	Two-electron integral transformation complete.
	(VV|OV)...
	Starting AA second half-transformation.
	Starting AB second half-transformation.
	Starting BB second half-transformation.
	Two-electron integral transformation complete.
	(VV|VV)...
	Starting AA second half-transformation.
	Starting AB second half-transformation.
	Starting BB second half-transformation.
	Two-electron integral transformation complete.
	Frozen core energy     =   -125.83033095141271

	Size of irrep 0 of <AB|CD> integrals:     19.643 (MW) /    157.141 (MB)
	Size of irrep 1 of <AB|CD> integrals:     13.660 (MW) /    109.283 (MB)
	Total:                                    33.303 (MW) /    266.424 (MB)

	Size of irrep 0 of <ab|cd> integrals:     20.794 (MW) /    166.349 (MB)
	Size of irrep 1 of <ab|cd> integrals:     14.631 (MW) /    117.045 (MB)
	Total:                                    35.424 (MW) /    283.394 (MB)

	Size of irrep 0 of <Ab|Cd> integrals:     83.174 (MW) /    665.395 (MB)
	Size of irrep 1 of <Ab|Cd> integrals:     56.550 (MW) /    452.403 (MB)
	Total:                                   139.725 (MW) /   1117.798 (MB)

	Size of irrep 0 of <IA|BC> integrals:      5.323 (MW) /     42.586 (MB)
	Size of irrep 1 of <IA|BC> integrals:      3.193 (MW) /     25.547 (MB)
	Total:                                     8.517 (MW) /     68.133 (MB)

	Size of irrep 0 of <ia|bc> integrals:      4.348 (MW) /     34.780 (MB)
	Size of irrep 1 of <ia|bc> integrals:      2.372 (MW) /     18.972 (MB)
	Total:                                     6.719 (MW) /     53.752 (MB)

	Size of irrep 0 of <Ia|Bc> integrals:      5.472 (MW) /     43.776 (MB)
	Size of irrep 1 of <Ia|Bc> integrals:      3.309 (MW) /     26.470 (MB)
	Total:                                     8.781 (MW) /     70.246 (MB)

	Size of irrep 0 of <iA|bC> integrals:      4.232 (MW) /     33.853 (MB)
	Size of irrep 1 of <iA|bC> integrals:      2.286 (MW) /     18.289 (MB)
	Total:                                     6.518 (MW) /     52.142 (MB)

	Size of irrep 0 of tIjAb amplitudes:       0.292 (MW) /      2.335 (MB)
	Size of irrep 1 of tIjAb amplitudes:       0.120 (MW) /      0.963 (MB)
	Total:                                     0.412 (MW) /      3.297 (MB)

	Nuclear Rep. energy          =     22.85526238749136
	SCF energy                   =   -150.87429916539909
	One-electron energy          =    -84.34306951560082
	Two-electron (AA) energy     =     10.12576639119322
	Two-electron (BB) energy     =      5.38739485717147
	Two-electron (AB) energy     =     20.93067766575612
	Two-electron energy          =     36.44383891412081
	Reference energy             =   -150.87429916540134

*** tstop() called on c4-4.compute.lan at Tue Mar  9 15:14:12 2021
Module time:
	user time   =     105.27 seconds =       1.75 minutes
	system time =      18.29 seconds =       0.30 minutes
	total time  =         34 seconds =       0.57 minutes
Total time:
	user time   =     171.71 seconds =       2.86 minutes
	system time =      19.85 seconds =       0.33 minutes
	total time  =         42 seconds =       0.70 minutes
            **************************
            *                        *
            *        CCENERGY        *
            *                        *
            **************************

    Nuclear Rep. energy (wfn)     =   22.855262387491358
    SCF energy          (wfn)     = -150.874299165399094
    Reference energy    (file100) = -150.874299165401339

    Input parameters:
    -----------------
    Wave function   =     CCSD_T
    Reference wfn   =     UHF
    Brueckner       =     No
    Memory (Mbytes) =     4000.0
    Maxiter         =     50
    R_Convergence   =     1.0e-10
    E_Convergence   =     1.0e-10
    Restart         =     Yes
    DIIS            =     Yes
    AO Basis        =     NONE
    ABCD            =     NEW
    Cache Level     =     2
    Cache Type      =     LRU
    Print Level     =     1
    Num. of threads =     12
    # Amps to Print =     10
    Print MP2 Amps? =     No
    Analyze T2 Amps =     No
    Print Pair Ener =     No
    Local CC        =     No
    SCS-MP2         =     False
    SCSN-MP2        =     False
    SCS-CCSD        =     False

MP2 correlation energy -0.4166998470848863
                Solving CC Amplitude Equations
                ------------------------------
  Iter             Energy              RMS        T1Diag      D1Diag    New D1Diag    D2Diag
  ----     ---------------------    ---------   ----------  ----------  ----------   --------
     0        -0.416699847084886    0.000e+00    0.000000    0.000000    0.000000    0.000000
     1        -0.427399767523524    5.692e-02    0.010556    0.000000    0.000000    0.000000
     2        -0.435505303781260    1.691e-02    0.011042    0.000000    0.000000    0.000000
     3        -0.437626107195924    8.584e-03    0.012917    0.000000    0.000000    0.000000
     4        -0.437500914436601    2.536e-03    0.013285    0.000000    0.000000    0.000000
     5        -0.437485801789990    1.328e-03    0.013442    0.000000    0.000000    0.000000
     6        -0.437513083855483    5.168e-04    0.013466    0.000000    0.000000    0.000000
     7        -0.437517898016068    2.684e-04    0.013460    0.000000    0.000000    0.000000
     8        -0.437518471418114    9.699e-05    0.013456    0.000000    0.000000    0.000000
     9        -0.437519881054798    6.959e-05    0.013457    0.000000    0.000000    0.000000
    10        -0.437518316606161    5.815e-05    0.013458    0.000000    0.000000    0.000000
    11        -0.437518448265506    5.487e-05    0.013459    0.000000    0.000000    0.000000
    12        -0.437518246840827    5.313e-05    0.013461    0.000000    0.000000    0.000000
    13        -0.437518237290821    5.218e-05    0.013463    0.000000    0.000000    0.000000
    14        -0.437519157164632    5.089e-05    0.013473    0.000000    0.000000    0.000000
    15        -0.437519491010667    4.649e-05    0.013519    0.000000    0.000000    0.000000
    16        -0.437519265438886    3.356e-05    0.013637    0.000000    0.000000    0.000000
    17        -0.437518966373821    1.702e-05    0.013709    0.000000    0.000000    0.000000
    18        -0.437518819427229    8.006e-06    0.013730    0.000000    0.000000    0.000000
    19        -0.437519067014011    3.523e-06    0.013735    0.000000    0.000000    0.000000
    20        -0.437519185126942    1.556e-06    0.013736    0.000000    0.000000    0.000000
    21        -0.437519192108639    6.207e-07    0.013736    0.000000    0.000000    0.000000
    22        -0.437519193273012    2.837e-07    0.013737    0.000000    0.000000    0.000000
    23        -0.437519192559620    1.433e-07    0.013737    0.000000    0.000000    0.000000
    24        -0.437519191760084    5.555e-08    0.013737    0.000000    0.000000    0.000000
    25        -0.437519192669307    2.764e-08    0.013737    0.000000    0.000000    0.000000
    26        -0.437519193107269    1.944e-08    0.013737    0.000000    0.000000    0.000000
    27        -0.437519193240791    1.774e-08    0.013737    0.000000    0.000000    0.000000
    28        -0.437519193218262    1.713e-08    0.013737    0.000000    0.000000    0.000000
    29        -0.437519193123500    1.672e-08    0.013737    0.000000    0.000000    0.000000
    30        -0.437519192934916    1.621e-08    0.013737    0.000000    0.000000    0.000000
    31        -0.437519192957455    1.469e-08    0.013737    0.000000    0.000000    0.000000
    32        -0.437519193208289    9.493e-09    0.013737    0.000000    0.000000    0.000000
    33        -0.437519193305923    4.421e-09    0.013737    0.000000    0.000000    0.000000
    34        -0.437519193367862    1.874e-09    0.013737    0.000000    0.000000    0.000000
    35        -0.437519193375953    7.318e-10    0.013737    0.000000    0.000000    0.000000
    36        -0.437519193375491    2.947e-10    0.013737    0.000000    0.000000    0.000000

      * MP2 total energy                      = -151.290999012486225
      * CCSD total energy                     = -151.311818358776065
      * CCSD(T) total energy                     = -151.324187728600123
*** Psi4 exiting successfully. Buy a developer a beer!
