                               Psi4 1.3.2 release

  ==> Input File <==

--------------------------------------------------------------------------
memory 4 GB

molecule  {
0 3
O   -1.643497874596   -0.028688748142    0.000000000000
H   -0.696058453777   -0.028705690789    0.000000000000
H   -1.893353263894    0.939284866306    0.000000000000
O    1.806654353382   -0.028686018072    0.000000000000
}
set {
basis aug-cc-pvtz
reference uhf
e_convergence 10
scf_type pk
freeze_core true
}

set ccenergy {
e_convergence 10
r_convergence 10
}

e = energy('ccsd(t)')

print_out('Stephenergy {}'.format(e))

--------------------------------------------------------------------------

    Molecular point group: cs

    Geometry (in Angstrom), charge = 0, multiplicity = 3:

       Center              X                  Y                   Z               Mass
    ------------   -----------------  -----------------  -----------------  -----------------
         O           -1.643497874596    -0.028688748142     0.000000000000    15.994914619570
         H           -0.696058453777    -0.028705690789     0.000000000000     1.007825032230
         H           -1.893353263894     0.939284866306     0.000000000000     1.007825032230
         O            1.806654353382    -0.028686018072     0.000000000000    15.994914619570

  Charge       = 0
  Multiplicity = 3
  Basis Set: AUG-CC-PVTZ
    Blend: AUG-CC-PVTZ

    Orbital Energies [Eh]
    ---------------------

    Alpha Occupied:

       1Ap   -20.729916     2Ap   -20.563672     3Ap    -1.438712
       4Ap    -1.340182     5Ap    -0.729656     1App   -0.729577
       6Ap    -0.704500     7Ap    -0.631665     8Ap    -0.575593
       2App   -0.503462

    Alpha Virtual:

       9Ap     0.033712    10Ap     0.053442    11Ap     0.129041
       3App    0.132800    12Ap     0.147025    13Ap     0.159681
      14Ap     0.181666     4App    0.183152    15Ap     0.206820
      16Ap     0.235345    17Ap     0.266609     5App    0.279768
      18Ap     0.288658     6App    0.318950    19Ap     0.364198
      20Ap     0.385451    21Ap     0.447939    22Ap     0.554373
       7App    0.604138    23Ap     0.608527    24Ap     0.641946
      25Ap     0.666109     8App    0.685005    26Ap     0.711823
       9App    0.734065    10App    0.746378    27Ap     0.753603
      28Ap     0.788825    11App    0.825141    29Ap     0.834351
      30Ap     0.853848    12App    0.874387    31Ap     0.913795
      32Ap     0.921382    13App    0.939838    33Ap     0.947958
      14App    0.967198    34Ap     0.975986    35Ap     1.025834
      36Ap     1.083013    15App    1.157999    37Ap     1.167846
      16App    1.209539    38Ap     1.223602    39Ap     1.254446
      40Ap     1.283548    17App    1.512763    41Ap     1.531312
      18App    1.587188    42Ap     1.598908    43Ap     1.793786
      44Ap     1.815283    45Ap     1.969789    19App    1.979382
      46Ap     1.979448    20App    2.009511    47Ap     2.012444
      21App    2.033810    48Ap     2.035911    22App    2.086425
      49Ap     2.115574    50Ap     2.133354    23App    2.159663
      51Ap     2.227063    24App    2.278381    52Ap     2.331650
      53Ap     2.368654    25App    2.424270    54Ap     2.426517
      26App    2.456989    55Ap     2.482586    56Ap     2.548999
      57Ap     2.685646    27App    2.723220    58Ap     2.726628
      59Ap     2.846150    60Ap     2.916585    28App    2.919428
      61Ap     3.637746    62Ap     3.813713    29App    4.015218
      30App    4.052038    63Ap     4.066740    31App    4.134003
      64Ap     4.177477    65Ap     4.249125    32App    4.293270
      66Ap     4.359490    33App    4.382174    34App    4.418572
      67Ap     4.425859    68Ap     4.547667    69Ap     4.729021
      70Ap     4.892997    35App    5.110021    71Ap     5.124390
      72Ap     5.272803    73Ap     5.366650    36App    5.503108
      74Ap     5.675774    75Ap     6.175118    37App    6.314891
      76Ap     6.314914    38App    6.366640    77Ap     6.367861
      39App    6.462162    78Ap     6.475335    79Ap     6.540859
      80Ap     6.594056    40App    6.713808    81Ap     6.813831
      41App    6.818884    82Ap     6.889575    42App    6.924762
      83Ap     6.949003    84Ap     7.038825    43App    7.109226
      44App    7.241611    85Ap     7.291863    45App    7.329228
      86Ap     7.354447    46App    7.409746    87Ap     7.625431
      88Ap     7.887359    89Ap     7.954056    90Ap     8.737365
      91Ap     8.945800    92Ap    16.093649

    Beta Occupied:

       1Ap   -20.651183     2Ap   -20.563736     3Ap    -1.340445
       4Ap    -1.096173     5Ap    -0.704280     6Ap    -0.577917
       7Ap    -0.539790     1App   -0.503492

    Beta Virtual:

       8Ap     0.033657     9Ap     0.047823     2App    0.050661
      10Ap     0.058936    11Ap     0.142817    12Ap     0.151715
       3App    0.160254    13Ap     0.178257    14Ap     0.207024
      15Ap     0.217746     4App    0.226990    16Ap     0.243990
      17Ap     0.269465     5App    0.279933    18Ap     0.291412
       6App    0.320335    19Ap     0.367529    20Ap     0.392099
      21Ap     0.448434    22Ap     0.556426     7App    0.637072
      23Ap     0.638134    24Ap     0.646015    25Ap     0.669357
       8App    0.699053    26Ap     0.712470     9App    0.734856
      10App    0.747327    27Ap     0.766894    28Ap     0.800501
      29Ap     0.841467    11App    0.858308    30Ap     0.911620
      31Ap     0.923669    12App    0.925645    32Ap     0.944584
      13App    0.946515    33Ap     0.967799    34Ap     1.006316
      14App    1.021499    35Ap     1.029175    36Ap     1.091105
      15App    1.161989    37Ap     1.170901    16App    1.217409
      38Ap     1.256202    39Ap     1.271793    40Ap     1.288729
      17App    1.513263    41Ap     1.549616    18App    1.588379
      42Ap     1.622256    43Ap     1.796570    44Ap     1.817061
      45Ap     1.972800    19App    2.017551    46Ap     2.017597
      20App    2.037748    47Ap     2.040999    21App    2.119937
      48Ap     2.157618    49Ap     2.165908    22App    2.179482
      50Ap     2.180418    23App    2.212841    51Ap     2.269825
      24App    2.279728    52Ap     2.345145    53Ap     2.383722
      25App    2.427503    54Ap     2.428249    26App    2.464589
      55Ap     2.489607    56Ap     2.554379    57Ap     2.692056
      27App    2.723699    58Ap     2.727075    59Ap     2.850483
      60Ap     2.918420    28App    2.920011    61Ap     3.637905
      62Ap     3.814734    29App    4.015469    30App    4.117756
      63Ap     4.165836    31App    4.238518    64Ap     4.240473
      65Ap     4.257470    32App    4.293366    66Ap     4.379925
      33App    4.382380    34App    4.420259    67Ap     4.452576
      68Ap     4.548672    69Ap     4.729900    70Ap     4.893685
      35App    5.110024    71Ap     5.124643    72Ap     5.272985
      73Ap     5.367653    36App    5.503113    74Ap     5.676140
      75Ap     6.175925    37App    6.423842    76Ap     6.423859
      38App    6.442759    77Ap     6.444237    78Ap     6.517699
      39App    6.518082    79Ap     6.554523    80Ap     6.640810
      40App    6.716230    81Ap     6.887684    41App    7.006273
      82Ap     7.006796    42App    7.034549    83Ap     7.058529
      43App    7.110763    84Ap     7.122127    44App    7.241790
      85Ap     7.292120    45App    7.329917    86Ap     7.354671
      46App    7.410246    87Ap     7.627973    88Ap     7.887501
      89Ap     7.954790    90Ap     8.737865    91Ap     9.022843
      92Ap    16.093995

    Final Occupation by Irrep:
             Ap   App
    DOCC [     7,    1 ]
    SOCC [     1,    1 ]

  @UHF Final Energy:  -150.87221450262203

   => Energetics <=

    Nuclear Repulsion Energy =             21.6612906540729924
    One-Electron Energy =                -251.1430601116321668
    Two-Electron Energy =                  78.6095549549371526
    Total Energy =                       -150.8722145026220289

  UHF NO Occupations:
  HONO-2 :    7 Ap 1.9970430
  HONO-1 :    2App 1.0000000
  HONO-0 :    8 Ap 1.0000000
  LUNO+0 :    9 Ap 0.0029570
  LUNO+1 :   10 Ap 0.0017361
  LUNO+2 :   11 Ap 0.0000024
  LUNO+3 :   12 Ap 0.0000005

Computation Completed

Properties will be evaluated at   0.000000,   0.000000,   0.000000 [a0]

Properties computed using the SCF density matrix

  Nuclear Dipole Moment: [e a0]
     X:    -2.4267      Y:     0.8534      Z:     0.0000

  Electronic Dipole Moment: [e a0]
     X:     2.9580      Y:    -0.2287      Z:     0.0000

  Dipole Moment: [e a0]
     X:     0.5313      Y:     0.6247      Z:     0.0000     Total:     0.8201

  Dipole Moment: [D]
     X:     1.3504      Y:     1.5879      Z:     0.0000     Total:     2.0844

*** tstop() called on c5-7.compute.lan at Tue Mar  9 14:24:06 2021
Module time:
	user time   =      40.27 seconds =       0.67 minutes
	system time =       1.05 seconds =       0.02 minutes
	total time  =          7 seconds =       0.12 minutes
Total time:
	user time   =      40.27 seconds =       0.67 minutes
	system time =       1.05 seconds =       0.02 minutes
	total time  =          7 seconds =       0.12 minutes
 MINTS: Wrapper to libmints.
   by Justin Turney

   Calculation information:
      Number of threads:                12
      Number of atoms:                   4
      Number of AO shells:              46
      Number of SO shells:              46
      Number of primitives:             82
      Number of atomic orbitals:       160
      Number of basis functions:       138

      Number of irreps:                  2
      Integral cutoff                 0.00e+00
      Number of functions per irrep: [  92   46 ]

 OEINTS: Overlap, kinetic, potential, dipole, and quadrupole integrals
         stored in file 35.

      Computing two-electron integrals...done
      Computed 22953885 non-zero two-electron integrals.
        Stored in file 33.

*** tstart() called on c5-7.compute.lan
*** at Tue Mar  9 14:24:09 2021

	Wfn Parameters:
	--------------------
	Wavefunction         = CCSD_T
	Number of irreps     = 2
	Number of MOs        = 138
	Number of active MOs = 136
	AO-Basis             = NONE
	Semicanonical        = false
	Reference            = UHF
	Print Level          = 1

	IRREP	# MOs	# FZDC	# DOCC	# SOCC	# VIRT	# FZVR
	-----	-----	------	------	------	------	------
	 Ap	   92	    2	    5	    1	    84	    0
	 App	   46	    0	    1	    1	    44	    0
	Transforming integrals...
	IWL integrals will be deleted.
	(OO|OO)...
	Presorting SO-basis two-electron integrals.
	Sorting File: SO Ints (nn|nn) nbuckets = 1
	Transforming the one-electron integrals and constructing Fock matrices
	Starting AA/AB first half-transformation.
	Sorting AA/AB half-transformed integrals.
	Starting BB first half-transformation.
	Sorting BB half-transformed integrals.
	First half integral transformation complete.
	Starting AA second half-transformation.
	Starting AB second half-transformation.
	Starting BB second half-transformation.
	Two-electron integral transformation complete.
	(OO|OV)...
	Starting AA second half-transformation.
	Starting AB second half-transformation.
	Starting BB second half-transformation.
	Two-electron integral transformation complete.
	(OO|VV)...
	Starting AA second half-transformation.
	Starting AB second half-transformation.
	Starting BB second half-transformation.
	Two-electron integral transformation complete.
	(OV|OO)...
	Starting AA/AB first half-transformation.
	Sorting AA/AB half-transformed integrals.
	Starting BB first half-transformation.
	Sorting BB half-transformed integrals.
	First half integral transformation complete.
	Starting AA second half-transformation.
	Starting AB second half-transformation.
	Starting BB second half-transformation.
	Two-electron integral transformation complete.
	(OV|OV)...
	Starting AA second half-transformation.
	Starting AB second half-transformation.
	Starting BB second half-transformation.
	Two-electron integral transformation complete.
	(OV|VV)...
	Starting AA second half-transformation.
	Starting AB second half-transformation.
	Starting BB second half-transformation.
	Two-electron integral transformation complete.
	(VV|OO)...
	Starting AA/AB first half-transformation.
	Sorting AA/AB half-transformed integrals.
	Starting BB first half-transformation.
	Sorting BB half-transformed integrals.
	First half integral transformation complete.
	Starting AA second half-transformation.
	Starting AB second half-transformation.
	Starting BB second half-transformation.
	Two-electron integral transformation complete.
	(VV|OV)...
	Starting AA second half-transformation.
	Starting AB second half-transformation.
	Starting BB second half-transformation.
	Two-electron integral transformation complete.
	(VV|VV)...
	Starting AA second half-transformation.
	Starting AB second half-transformation.
	Starting BB second half-transformation.
	Two-electron integral transformation complete.
	Frozen core energy     =   -125.38092232901971

	Size of irrep 0 of <AB|CD> integrals:     19.643 (MW) /    157.141 (MB)
	Size of irrep 1 of <AB|CD> integrals:     13.660 (MW) /    109.283 (MB)
	Total:                                    33.303 (MW) /    266.424 (MB)

	Size of irrep 0 of <ab|cd> integrals:     20.794 (MW) /    166.349 (MB)
	Size of irrep 1 of <ab|cd> integrals:     14.631 (MW) /    117.045 (MB)
	Total:                                    35.424 (MW) /    283.394 (MB)

	Size of irrep 0 of <Ab|Cd> integrals:     83.174 (MW) /    665.395 (MB)
	Size of irrep 1 of <Ab|Cd> integrals:     56.550 (MW) /    452.403 (MB)
	Total:                                   139.725 (MW) /   1117.798 (MB)

	Size of irrep 0 of <IA|BC> integrals:      5.323 (MW) /     42.586 (MB)
	Size of irrep 1 of <IA|BC> integrals:      3.193 (MW) /     25.547 (MB)
	Total:                                     8.517 (MW) /     68.133 (MB)

	Size of irrep 0 of <ia|bc> integrals:      4.348 (MW) /     34.780 (MB)
	Size of irrep 1 of <ia|bc> integrals:      2.372 (MW) /     18.972 (MB)
	Total:                                     6.719 (MW) /     53.752 (MB)

	Size of irrep 0 of <Ia|Bc> integrals:      5.472 (MW) /     43.776 (MB)
	Size of irrep 1 of <Ia|Bc> integrals:      3.309 (MW) /     26.470 (MB)
	Total:                                     8.781 (MW) /     70.246 (MB)

	Size of irrep 0 of <iA|bC> integrals:      4.232 (MW) /     33.853 (MB)
	Size of irrep 1 of <iA|bC> integrals:      2.286 (MW) /     18.289 (MB)
	Total:                                     6.518 (MW) /     52.142 (MB)

	Size of irrep 0 of tIjAb amplitudes:       0.292 (MW) /      2.335 (MB)
	Size of irrep 1 of tIjAb amplitudes:       0.120 (MW) /      0.963 (MB)
	Total:                                     0.412 (MW) /      3.297 (MB)

	Nuclear Rep. energy          =     21.66129065407299
	SCF energy                   =   -150.87221450262203
	One-electron energy          =    -82.88972220956606
	Two-electron (AA) energy     =      9.90095371637358
	Two-electron (BB) energy     =      5.26498387344809
	Two-electron (AB) energy     =     20.57120179206827
	Two-electron energy          =     35.73713938188993
	Reference energy             =   -150.87221450262285

*** tstop() called on c5-7.compute.lan at Tue Mar  9 14:25:04 2021
Module time:
	user time   =     271.54 seconds =       4.53 minutes
	system time =      20.31 seconds =       0.34 minutes
	total time  =         55 seconds =       0.92 minutes
Total time:
	user time   =     316.32 seconds =       5.27 minutes
	system time =      21.91 seconds =       0.37 minutes
	total time  =         65 seconds =       1.08 minutes
            **************************
            *                        *
            *        CCENERGY        *
            *                        *
            **************************

    Nuclear Rep. energy (wfn)     =   21.661290654072992
    SCF energy          (wfn)     = -150.872214502622029
    Reference energy    (file100) = -150.872214502622853

    Input parameters:
    -----------------
    Wave function   =     CCSD_T
    Reference wfn   =     UHF
    Brueckner       =     No
    Memory (Mbytes) =     4000.0
    Maxiter         =     50
    R_Convergence   =     1.0e-10
    E_Convergence   =     1.0e-10
    Restart         =     Yes
    DIIS            =     Yes
    AO Basis        =     NONE
    ABCD            =     NEW
    Cache Level     =     2
    Cache Type      =     LRU
    Print Level     =     1
    Num. of threads =     12
    # Amps to Print =     10
    Print MP2 Amps? =     No
    Analyze T2 Amps =     No
    Print Pair Ener =     No
    Local CC        =     No
    SCS-MP2         =     False
    SCSN-MP2        =     False
    SCS-CCSD        =     False

MP2 correlation energy -0.4169055867312136
                Solving CC Amplitude Equations
                ------------------------------
  Iter             Energy              RMS        T1Diag      D1Diag    New D1Diag    D2Diag
  ----     ---------------------    ---------   ----------  ----------  ----------   --------
     0        -0.416905586731214    0.000e+00    0.000000    0.000000    0.000000    0.000000
     1        -0.427438419552988    5.738e-02    0.010588    0.000000    0.000000    0.000000
     2        -0.435642293968621    1.715e-02    0.011052    0.000000    0.000000    0.000000
     3        -0.437812148316916    8.623e-03    0.012922    0.000000    0.000000    0.000000
     4        -0.437686279391992    2.539e-03    0.013275    0.000000    0.000000    0.000000
     5        -0.437674504171667    1.279e-03    0.013421    0.000000    0.000000    0.000000
     6        -0.437700298490464    5.060e-04    0.013436    0.000000    0.000000    0.000000
     7        -0.437704277491366    2.265e-04    0.013425    0.000000    0.000000    0.000000
     8        -0.437705139256122    7.675e-05    0.013419    0.000000    0.000000    0.000000
     9        -0.437706372818359    4.514e-05    0.013419    0.000000    0.000000    0.000000
    10        -0.437705184042018    3.671e-05    0.013419    0.000000    0.000000    0.000000
    11        -0.437705293448847    3.530e-05    0.013419    0.000000    0.000000    0.000000
    12        -0.437705158657718    3.472e-05    0.013419    0.000000    0.000000    0.000000
    13        -0.437705068499314    3.430e-05    0.013420    0.000000    0.000000    0.000000
    14        -0.437705485979496    3.338e-05    0.013426    0.000000    0.000000    0.000000
    15        -0.437705505103041    3.095e-05    0.013440    0.000000    0.000000    0.000000
    16        -0.437705504270957    2.566e-05    0.013518    0.000000    0.000000    0.000000
    17        -0.437705514462962    1.501e-05    0.013571    0.000000    0.000000    0.000000
    18        -0.437705445435600    6.479e-06    0.013595    0.000000    0.000000    0.000000
    19        -0.437705588293434    2.917e-06    0.013601    0.000000    0.000000    0.000000
    20        -0.437705667102474    1.363e-06    0.013602    0.000000    0.000000    0.000000
    21        -0.437705672539647    5.779e-07    0.013602    0.000000    0.000000    0.000000
    22        -0.437705673057566    2.317e-07    0.013602    0.000000    0.000000    0.000000
    23        -0.437705673882413    9.921e-08    0.013602    0.000000    0.000000    0.000000
    24        -0.437705673844744    4.209e-08    0.013602    0.000000    0.000000    0.000000
    25        -0.437705674510896    2.235e-08    0.013602    0.000000    0.000000    0.000000
    26        -0.437705674919267    8.123e-09    0.013602    0.000000    0.000000    0.000000
    27        -0.437705674992771    3.389e-09    0.013602    0.000000    0.000000    0.000000
    28        -0.437705675016793    2.455e-09    0.013602    0.000000    0.000000    0.000000
    29        -0.437705675018480    2.217e-09    0.013602    0.000000    0.000000    0.000000
    30        -0.437705675004992    2.054e-09    0.013602    0.000000    0.000000    0.000000
    31        -0.437705674987089    1.901e-09    0.013602    0.000000    0.000000    0.000000
    32        -0.437705674975769    1.720e-09    0.013602    0.000000    0.000000    0.000000
    33        -0.437705674975168    1.381e-09    0.013602    0.000000    0.000000    0.000000
    34        -0.437705674979349    7.850e-10    0.013602    0.000000    0.000000    0.000000
    35        -0.437705674982539    3.503e-10    0.013602    0.000000    0.000000    0.000000
    36        -0.437705674983255    1.349e-10    0.013602    0.000000    0.000000    0.000000

      * MP2 total energy                      = -151.289120089354071
      * CCSD total energy                     = -151.309920177604880
      * CCSD(T) total energy                     = -151.322296647563917
*** Psi4 exiting successfully. Buy a developer a beer!
