                               Psi4 1.4a2.dev191

  ==> Input File <==

--------------------------------------------------------------------------
memory 10 GB
molecule {
0 2
O
H 1 R1
R1 = 0.9478992047
}
set {
basis aug-cc-pvqz
e_convergence 10
g_convergence gau_verytight
reference uhf
scf_type pk
mp2_type conv
}

optimize("mp2")

--------------------------------------------------------------------------

    Molecular point group: c2v
  Charge       = 0
  Multiplicity = 2
  Basis Set: AUG-CC-PVQZ
    Blend: AUG-CC-PVQZ
  @UHF Final Energy:   -75.42700479969898
    Total Energy =                        -75.4270047996989916
    Molecular point group: c2v
  Basis Set: AUG-CC-PVQZ
    Blend: AUG-CC-PVQZ
  @UHF Final Energy:   -75.42679806783713
    Total Energy =                        -75.4267980678371259
  Basis Set: AUG-CC-PVQZ
    Blend: AUG-CC-PVQZ
  @UHF Final Energy:   -75.42677663314097
    Total Energy =                        -75.4267766331409604
  Basis Set: AUG-CC-PVQZ
    Blend: AUG-CC-PVQZ
  @UHF Final Energy:   -75.42677534555644
    Total Energy =                        -75.4267753455564360
  Charge       = 0
  Multiplicity = 2
  Basis Set: AUG-CC-PVQZ
    Blend: AUG-CC-PVQZ

    Orbital Energies [Eh]
    ---------------------

    Alpha Occupied:

       1A1   -20.638307     2A1    -1.390503     3A1    -0.684045
       1B2    -0.659022     1B1    -0.561930

    Alpha Virtual:

       4A1     0.027565     5A1     0.113368     2B2     0.130249
       2B1     0.137624     6A1     0.161544     3B2     0.212908
       3B1     0.217479     7A1     0.220535     8A1     0.348287
       9A1     0.472037     1A2     0.473361    10A1     0.506837
       4B2     0.545115     4B1     0.555563     5B2     0.621470
       5B1     0.638002    11A1     0.647264     2A2     0.680475
      12A1     0.681176    13A1     0.707677     6B2     0.736193
       6B1     0.758543    14A1     0.784013     7B2     1.148313
       7B1     1.166842    15A1     1.223180     8B2     1.322283
       8B1     1.322293    16A1     1.471387     3A2     1.475234
      17A1     1.485274     9B2     1.533276     9B1     1.553936
      18A1     1.574621     4A2     1.575050    19A1     1.626440
      20A1     1.648219    10B2     1.687960    10B1     1.703764
      11B2     1.722430    11B1     1.722830     5A2     1.863682
      21A1     1.863841    22A1     1.889145    12B2     2.093296
      12B1     2.118698    23A1     2.421087    13B2     2.590075
      13B1     2.636618    14B2     2.954890     6A2     2.966601
      24A1     2.966744    14B1     2.973157    25A1     3.040260
      26A1     3.601353     7A2     3.648684    27A1     3.648684
      15B2     3.753733    15B1     3.796394    16B2     3.906458
      16B1     3.906690    28A1     3.988775    17B2     4.076055
      17B1     4.076378     8A2     4.137261    29A1     4.140182
      18B2     4.147979    18B1     4.185879    30A1     4.195976
       9A2     4.255092    31A1     4.258646    32A1     4.395835
      19B2     4.740151    19B1     4.782317    10A2     4.803768
      33A1     4.804271    34A1     5.154168    20B2     5.555216
      20B1     5.594931    35A1     5.852807    21B2     6.688477
      21B1     6.688478    22B2     7.729738    22B1     7.743131
      36A1     7.758912    11A2     7.759778    37A1     7.846388
      38A1     8.537644    12A2     8.538056    39A1     8.552302
      23B2     8.686728    23B1     8.702245    40A1     9.767103
      24B2     9.823475    24B1     9.850295    41A1    10.593544
      13A2    10.593546    42A1    10.630545    25B2    10.742583
      25B1    10.742792    26B2    10.823666    26B1    10.895268
      43A1    11.178927    14A2    11.179671    27B2    11.499548
      27B1    11.552918    44A1    11.586635    28B2    11.835759
      28B1    11.835890    45A1    11.997020    15A2    11.997992
      46A1    12.230772    29B2    12.713315    29B1    12.766656
      16A2    12.796437    47A1    12.796886    48A1    14.376601
      30B2    14.516939    30B1    14.568135    49A1    16.854924
      50A1    42.999392

    Beta Occupied:

       1A1   -20.598525     2A1    -1.232320     3A1    -0.640080
       1B1    -0.513935

    Beta Virtual:

       4A1     0.028591     1B2     0.060534     5A1     0.115125
       2B1     0.139224     6A1     0.164583     2B2     0.178179
       3B1     0.217500     7A1     0.223467     3B2     0.231830
       8A1     0.356040     1A2     0.481532     9A1     0.481675
      10A1     0.508583     4B1     0.553966     4B2     0.554685
       5B1     0.641714    11A1     0.647846     5B2     0.659460
       2A2     0.681128    12A1     0.681533    13A1     0.718990
       6B1     0.764747    14A1     0.793927     6B2     0.805173
       7B1     1.166833     7B2     1.176203    15A1     1.240494
       8B1     1.329954     8B2     1.329962    16A1     1.489636
       3A2     1.520196    17A1     1.521467     9B2     1.547385
       9B1     1.553772     4A2     1.583609    18A1     1.584105
      19A1     1.635066    20A1     1.650288    10B1     1.706506
      10B2     1.710583    11B1     1.723979    11B2     1.724072
      21A1     1.869758     5A2     1.870091    22A1     1.899097
      12B1     2.122759    12B2     2.127712    23A1     2.428462
      13B1     2.650295    13B2     2.679932    14B2     2.966501
      14B1     2.971659    24A1     2.974950     6A2     2.974982
      25A1     3.047667    26A1     3.617739     7A2     3.662203
      27A1     3.662204    15B2     3.804562    15B1     3.806704
      16B2     3.922282    16B1     3.922286    28A1     4.010795
      17B1     4.107119    17B2     4.107119     8A2     4.155510
      29A1     4.155971    18B2     4.179871    18B1     4.189768
      30A1     4.234969     9A2     4.322433    31A1     4.323166
      32A1     4.402200    19B2     4.787201    19B1     4.791423
      10A2     4.835938    33A1     4.836105    34A1     5.168625
      20B2     5.594051    20B1     5.602304    35A1     5.872986
      21B2     6.689749    21B1     6.689749    22B2     7.734448
      22B1     7.741932    36A1     7.764338    11A2     7.765014
      37A1     7.851303    38A1     8.537986    12A2     8.538519
      39A1     8.558761    23B2     8.691239    23B1     8.701243
      40A1     9.775152    24B2     9.842396    24B1     9.853656
      41A1    10.629026    13A2    10.629026    42A1    10.642147
      25B2    10.770914    25B1    10.770917    26B2    10.915192
      26B1    10.915290    43A1    11.200808    14A2    11.201127
      27B2    11.534853    27B1    11.561028    44A1    11.609950
      28B2    11.892746    28B1    11.892751    45A1    12.039739
      15A2    12.039950    46A1    12.249608    29B2    12.760947
      29B1    12.779240    16A2    12.863451    47A1    12.863508
      48A1    14.391825    30B2    14.563352    30B1    14.579780
      49A1    16.868080    50A1    43.023458

    Final Occupation by Irrep:
             A1    A2    B1    B2
    DOCC [     3,    0,    1,    0 ]
    SOCC [     0,    0,    0,    1 ]

  @UHF Final Energy:   -75.42677526988351

   => Energetics <=

    Nuclear Repulsion Energy =              4.3839632986279629
    One-Electron Energy =                -112.7028095597455319
    Two-Electron Energy =                  32.8920709912340641
    Total Energy =                        -75.4267752698835068

  UHF NO Occupations:
  HONO-2 :    2 A1 1.9992187
  HONO-1 :    3 A1 1.9978589
  HONO-0 :    1 B2 1.0000000
  LUNO+0 :    4 A1 0.0021411
  LUNO+1 :    5 A1 0.0007813
  LUNO+2 :    2 B1 0.0006254
  LUNO+3 :    6 A1 0.0000012

Computation Completed

Properties will be evaluated at   0.000000,   0.000000,   0.000000 [a0]

Properties computed using the SCF density matrix

  Nuclear Dipole Moment: [e a0]
     X:     0.0000      Y:     0.0000      Z:     0.8513

  Electronic Dipole Moment: [e a0]
     X:     0.0000      Y:     0.0000      Z:    -0.1611

  Dipole Moment: [e a0]
     X:     0.0000      Y:     0.0000      Z:     0.6902     Total:     0.6902

  Dipole Moment: [D]
     X:     0.0000      Y:     0.0000      Z:     1.7544     Total:     1.7544

*** tstop() called on c4-9.compute.lan at Tue Feb 23 13:28:42 2021
Module time:
	user time   =       4.40 seconds =       0.07 minutes
	system time =       0.41 seconds =       0.01 minutes
	total time  =          5 seconds =       0.08 minutes
Total time:
	user time   =     124.58 seconds =       2.08 minutes
	system time =      26.96 seconds =       0.45 minutes
	total time  =        159 seconds =       2.65 minutes
 MINTS: Wrapper to libmints.
   by Justin Turney

   Calculation information:
      Number of threads:                 1
      Number of atoms:                   2
      Number of AO shells:              34
      Number of SO shells:              34
      Number of primitives:             54
      Number of atomic orbitals:       160
      Number of basis functions:       126

      Number of irreps:                  4
      Integral cutoff                 0.00e+00
      Number of functions per irrep: [  50   16   30   30 ]

 OEINTS: Overlap, kinetic, potential, dipole, and quadrupole integrals
         stored in file 35.

      Computing two-electron integrals...done
      Computed 7374102 non-zero two-electron integrals.
        Stored in file 33.

*** tstart() called on c4-9.compute.lan
*** at Tue Feb 23 13:28:44 2021

 ==============================================================================
 ==============================================================================
 ==============================================================================

                       MP2
              Program Written by Ugur Bozkaya,
              Latest Revision June 25, 2014.

 ==============================================================================
 ==============================================================================
 ==============================================================================

	RMS orbital gradient is changed to :     1.00e-07
	MAX orbital gradient is changed to :     1.00e-04
	MO spaces per irreps...

	IRREP   FC   AOCC  BOCC  AVIR    BVIR  FV
	==========================================
	  A1     0     3     3    47     47     0
	  A2     0     0     0    16     16     0
	  B1     0     1     1    29     29     0
	  B2     0     1     0    29     30     0
	==========================================

	Computing MP2 energy using SCF MOs (Canonical MP2)...
	==============================================================================
	Nuclear Repulsion Energy (a.u.)    :     4.38396329862796
	SCF Energy (a.u.)                  :   -75.42677526988351
	REF Energy (a.u.)                  :   -75.42677526988351
	Alpha-Alpha Contribution (a.u.)    :    -0.03700781002034
	Alpha-Beta Contribution (a.u.)     :    -0.19495457806622
	Beta-Beta Contribution (a.u.)      :    -0.01780075249238
	Scaled_SS Correlation Energy (a.u.):    -0.01826952083757
	Scaled_OS Correlation Energy (a.u.):    -0.23394549367946
	SCS-MP2 Total Energy (a.u.)        :   -75.67899028440054
	SOS-MP2 Total Energy (a.u.)        :   -75.42677526988351
	SCSN-MP2 Total Energy (a.u.)       :   -75.52323833990589
	SCS-MP2-VDW Total Energy (a.u.)    :   -75.70372141106462
	SOS-PI-MP2 Total Energy (a.u.)     :   -75.69971167917622
	MP2 Correlation Energy (a.u.)      :    -0.24976314057893
	MP2 Total Energy (a.u.)            :   -75.67653841046244
	==============================================================================
	Analytic gradient computation is starting...
	Computing response density matrices...
	Computing off-diagonal blocks of GFM...
	Forming independent-pairs...
	Number of alpha independent-pairs:199
	Number of beta independent-pairs :170
	Computing orbital gradient...
	Computing diagonal blocks of GFM...
	Solving orbital Z-vector equations...
	Forming relaxed response density matrices...
	Forming relaxed GFM...
	Writing particle density matrices and GFM to disk...
	Necessary information has been sent to DERIV, which will take care of the rest.

*** tstop() called on c4-9.compute.lan at Tue Feb 23 13:28:54 2021
Module time:
	user time   =       5.19 seconds =       0.09 minutes
	system time =       3.63 seconds =       0.06 minutes
	total time  =         10 seconds =       0.17 minutes
Total time:
	user time   =     131.46 seconds =       2.19 minutes
	system time =      30.72 seconds =       0.51 minutes
	total time  =        171 seconds =       2.85 minutes
  Cartesian Displacement SALCs
  By SALC:
  Number of SALCs: 2, nirreps: A1
  Project out translations: False
  Project out rotations: False
	irrep = 0, ncomponent = 1
		0: atom 0, direction z, coef 1.000000
	irrep = 0, ncomponent = 1
		0: atom 1, direction z, coef 1.000000

  By Atomic Center:
  Number of atomic centers: 2
   Atomic Center 0:
	x component, size = 0
	y component, size = 0
	z component, size = 1
		0: salc 0, irrep 0, coef 1.000000
   Atomic Center 1:
	x component, size = 0
	y component, size = 0
	z component, size = 1
		0: salc 1, irrep 0, coef 1.000000

    Molecular point group: c2v
    Full point group: C_inf_v

    Geometry (in Bohr), charge = 0, multiplicity = 2:

       Center              X                  Y                   Z
    ------------   -----------------  -----------------  -----------------
         O            0.000000000000     0.000000000000    -0.108165637317
         H            0.000000000000     0.000000000000     1.716667157817

	Presorting MO-basis TPDMs.
	Sorting File: MO TPDM (AA|AA) nbuckets = 1
	Sorting File: MO TPDM (AA|aa) nbuckets = 1
	Sorting File: MO TPDM (aa|aa) nbuckets = 1
	Starting first half-transformation.
	Sorting half-transformed TPDMs.
	First half integral transformation complete.

  -Nuclear Repulsion Energy 1st Derivatives:
     Atom            X                  Y                   Z
    ------   -----------------  -----------------  -----------------
       1        0.000000000000     0.000000000000     2.402391775465
       2        0.000000000000     0.000000000000    -2.402391775465

  -Core Hamiltonian Gradient:
     Atom            X                  Y                   Z
    ------   -----------------  -----------------  -----------------
       1        0.000000000000     0.000000000000    -4.639933234466
       2        0.000000000000     0.000000000000     4.639933234466

  -Lagrangian contribution to gradient:
     Atom            X                  Y                   Z
    ------   -----------------  -----------------  -----------------
       1        0.000000000000     0.000000000000     0.217065767586
       2        0.000000000000     0.000000000000    -0.217065767586

  -Two-electron contribution to gradient:
     Atom            X                  Y                   Z
    ------   -----------------  -----------------  -----------------
       1        0.000000000000     0.000000000000     2.020475845466
       2        0.000000000000     0.000000000000    -2.020475845466

  -Total gradient:
     Atom            X                  Y                   Z
    ------   -----------------  -----------------  -----------------
       1        0.000000000000     0.000000000000     0.000000154051
       2        0.000000000000     0.000000000000    -0.000000154051

			-----------------------------------------
			 OPTKING 2.0: for geometry optimizations
			  - R.A. King,  Bethel University
			-----------------------------------------

	Previous internal coordinate definitions found.
	---Fragment 1 Geometry and Gradient---
	 O           0.0000000000        0.0000000000       -0.1081656373
	 H           0.0000000000        0.0000000000        1.7166671578
	             0.0000000000        0.0000000000        0.0000001541
	             0.0000000000        0.0000000000       -0.0000001541

	---Fragment 1 Intrafragment Coordinates---
	 - Coordinate -           - BOHR/RAD -       - ANG/DEG -
	 R(1,2)           =         1.824833	       0.965660

	Current energy   :       -75.6765384105

	Energy change for the previous step:
		Projected    :        -0.0000000000
		Actual       :         0.0000000000

	Performing BFGS update.
	Previous computed or guess Hessian on step 1.
	Denominators (dg)(dq) or (dq)(dq) are very small.
	 Skipping Hessian update for step 4.
	Denominators (dg)(dq) or (dq)(dq) are very small.
	 Skipping Hessian update for step 3.
	Steps to be used in Hessian update: 2 1
	Taking RFO optimization step.
	Going to follow RFO solution 1.
	Using RFO vector 1.
	Norm of target step-size    0.00000
	Projected energy change by RFO approximation:        -0.0000000000

	Back-transformation to cartesian coordinates...
	Successfully converged to displaced geometry.

	--- Internal Coordinate Step in ANG or DEG, aJ/ANG or AJ/DEG ---
	 ---------------------------------------------------------------------------
	   Coordinate                Previous        Force       Change         New
	   ----------                --------       ------       ------       ------
	    1 R(1,2)          =      0.965660     0.000001     0.000000     0.965660
	 ---------------------------------------------------------------------------
	Successfully symmetrized geometry.

  ==> Convergence Check <==

  Measures of convergence in internal coordinates in au.
  Criteria marked as inactive (o), active & met (*), and active & unmet ( ).
  ---------------------------------------------------------------------------------------------
   Step     Total Energy     Delta E     MAX Force     RMS Force      MAX Disp      RMS Disp
  ---------------------------------------------------------------------------------------------
    Convergence Criteria             o    2.00e-06 *    1.00e-06 *    6.00e-06 *    4.00e-06 *
  ---------------------------------------------------------------------------------------------
      5     -75.67653841    1.90e-11 o    1.54e-07 *    1.54e-07 *    2.77e-07 *    2.77e-07 *  ~
  ---------------------------------------------------------------------------------------------

  **** Optimization is complete! (in 5 steps) ****

  ==> Optimization Summary <==

  Measures of convergence in internal coordinates in au.
  --------------------------------------------------------------------------------------------------------------- ~
   Step         Total Energy             Delta E       MAX Force       RMS Force        MAX Disp        RMS Disp  ~
  --------------------------------------------------------------------------------------------------------------- ~
      1     -75.676230954639    -75.676230954639      0.01869363      0.01869363      0.03210875      0.03210875  ~
      2     -75.676537854980     -0.000306900341      0.00076452      0.00076452      0.00136916      0.00136916  ~
      3     -75.676538408573     -0.000000553593      0.00004472      0.00004472      0.00008028      0.00008028  ~
      4     -75.676538410481     -0.000000001908      0.00000262      0.00000262      0.00000471      0.00000471  ~
      5     -75.676538410462      0.000000000019      0.00000015      0.00000015      0.00000028      0.00000028  ~
  --------------------------------------------------------------------------------------------------------------- ~

	Writing optimization data to binary file.
	Final energy is    -75.6765384104624

    Final optimized geometry and variables:
    Molecular point group: c2v

    Geometry (in Angstrom), charge = 0, multiplicity = 2:

    O
    H             1          R1

*** Psi4 exiting successfully. Buy a developer a beer!
