                               Psi4 1.3.2 release

  ==> Input File <==

--------------------------------------------------------------------------
memory 4 GB

molecule  {
0 3
O   -1.520512699176   -0.026868967589    0.000000000000
H   -0.557836621776   -0.016431123988    0.000000000000
H   -1.784015145595    0.898030648202    0.000000000000
O    1.668070650504   -0.028679817137    0.000000000000
}
set {
basis aug-cc-pvtz
reference uhf
e_convergence 10
scf_type pk
freeze_core true
}

set ccenergy {
e_convergence 10
r_convergence 10
}

e = energy('ccsd(t)')

print_out('Stephenergy {}'.format(e))

--------------------------------------------------------------------------

    Molecular point group: cs

    Geometry (in Angstrom), charge = 0, multiplicity = 3:

       Center              X                  Y                   Z               Mass
    ------------   -----------------  -----------------  -----------------  -----------------
         O           -1.520512699176    -0.026868967589     0.000000000000    15.994914619570
         H           -0.557836621776    -0.016431123988     0.000000000000     1.007825032230
         H           -1.784015145595     0.898030648202     0.000000000000     1.007825032230
         O            1.668070650504    -0.028679817137     0.000000000000    15.994914619570

  Charge       = 0
  Multiplicity = 3
  Basis Set: AUG-CC-PVTZ
    Blend: AUG-CC-PVTZ

    Orbital Energies [Eh]
    ---------------------

    Alpha Occupied:

       1Ap   -20.734920     2Ap   -20.558068     3Ap    -1.444241
       4Ap    -1.341998     5Ap    -0.734767     1App   -0.734628
       6Ap    -0.711344     7Ap    -0.636914     8Ap    -0.572790
       2App   -0.501315

    Alpha Virtual:

       9Ap     0.034622    10Ap     0.053212    11Ap     0.127574
       3App    0.131474    12Ap     0.148140    13Ap     0.161197
      14Ap     0.183285     4App    0.186203    15Ap     0.211348
      16Ap     0.241790    17Ap     0.271786     5App    0.282397
      18Ap     0.293775     6App    0.324028    19Ap     0.372493
      20Ap     0.392417    21Ap     0.460098    22Ap     0.559106
       7App    0.599954    23Ap     0.608415    24Ap     0.644314
      25Ap     0.667323     8App    0.712815    26Ap     0.713144
       9App    0.734731    10App    0.746356    27Ap     0.765437
      28Ap     0.796561    11App    0.824907    29Ap     0.851200
      30Ap     0.865421    12App    0.882374    31Ap     0.923081
      13App    0.943545    32Ap     0.943897    33Ap     0.956722
      14App    0.983414    34Ap     0.988543    35Ap     1.043700
      36Ap     1.127762    37Ap     1.168675    15App    1.177255
      38Ap     1.195036    16App    1.260613    39Ap     1.272276
      40Ap     1.322913    17App    1.528850    41Ap     1.560979
      18App    1.603477    42Ap     1.689731    43Ap     1.812371
      44Ap     1.825274    19App    1.975596    45Ap     1.975634
      46Ap     1.997164    20App    2.011094    47Ap     2.018127
      21App    2.048047    48Ap     2.061724    22App    2.122700
      49Ap     2.162768    50Ap     2.164796    23App    2.211628
      24App    2.293888    51Ap     2.300588    52Ap     2.327508
      53Ap     2.414481    25App    2.446877    54Ap     2.459491
      26App    2.524981    55Ap     2.536206    56Ap     2.633268
      57Ap     2.669995    27App    2.730135    58Ap     2.753370
      59Ap     2.867583    28App    2.945731    60Ap     2.949161
      61Ap     3.698090    62Ap     3.895593    29App    4.031284
      30App    4.058488    63Ap     4.077166    31App    4.173371
      64Ap     4.209976    65Ap     4.268470    32App    4.310483
      66Ap     4.380708    33App    4.393591    34App    4.439020
      67Ap     4.440835    68Ap     4.571145    69Ap     4.778001
      70Ap     4.956044    35App    5.158288    71Ap     5.170389
      72Ap     5.315947    73Ap     5.373989    36App    5.522662
      74Ap     5.702977    75Ap     6.188345    37App    6.310234
      76Ap     6.310276    38App    6.372697    77Ap     6.375686
      39App    6.520646    78Ap     6.530198    79Ap     6.557277
      80Ap     6.635122    40App    6.724300    81Ap     6.812040
      41App    6.818418    82Ap     6.903214    42App    6.933832
      83Ap     6.964932    84Ap     7.049514    43App    7.148998
      44App    7.274351    45App    7.324321    85Ap     7.331357
      86Ap     7.360334    46App    7.443708    87Ap     7.665087
      88Ap     7.948332    89Ap     7.968630    90Ap     8.802945
      91Ap     9.391005    92Ap    16.543591

    Beta Occupied:

       1Ap   -20.656141     2Ap   -20.558208     3Ap    -1.342601
       4Ap    -1.101791     5Ap    -0.710397     6Ap    -0.579480
       7Ap    -0.541935     1App   -0.501370

    Beta Virtual:

       8Ap     0.034247     9Ap     0.046033     2App    0.047677
      10Ap     0.057665    11Ap     0.144191    12Ap     0.151001
       3App    0.160265    13Ap     0.179690    14Ap     0.210225
      15Ap     0.217834     4App    0.225957    16Ap     0.251390
      17Ap     0.273741     5App    0.282746    18Ap     0.296054
       6App    0.327747    19Ap     0.376304    20Ap     0.403020
      21Ap     0.460834    22Ap     0.561981     7App    0.632240
      23Ap     0.638744    24Ap     0.647434    25Ap     0.670196
      26Ap     0.713887     8App    0.726583     9App    0.735968
      10App    0.747808    27Ap     0.783990    28Ap     0.808906
      29Ap     0.857018    11App    0.866856    30Ap     0.918268
      12App    0.936480    31Ap     0.943624    13App    0.950140
      32Ap     0.953446    33Ap     0.976512    34Ap     1.016234
      14App    1.024879    35Ap     1.047772    36Ap     1.154255
      37Ap     1.176838    15App    1.180455    38Ap     1.219611
      16App    1.271780    39Ap     1.274516    40Ap     1.333810
      17App    1.529692    41Ap     1.567015    18App    1.605099
      42Ap     1.716318    43Ap     1.816997    44Ap     1.833129
      45Ap     2.004903    19App    2.013712    46Ap     2.013934
      20App    2.052662    47Ap     2.066726    21App    2.170698
      22App    2.179474    48Ap     2.179762    49Ap     2.202774
      50Ap     2.226063    23App    2.249000    24App    2.295873
      51Ap     2.315945    52Ap     2.342737    53Ap     2.421967
      25App    2.449382    54Ap     2.460354    26App    2.533537
      55Ap     2.543480    56Ap     2.639315    57Ap     2.681109
      27App    2.731284    58Ap     2.760399    59Ap     2.872171
      28App    2.946416    60Ap     2.951835    61Ap     3.698580
      62Ap     3.898318    29App    4.031475    30App    4.146793
      63Ap     4.189424    64Ap     4.242346    31App    4.255051
      65Ap     4.292685    32App    4.310764    33App    4.393760
      66Ap     4.398345    34App    4.440593    67Ap     4.468794
      68Ap     4.572161    69Ap     4.779393    70Ap     4.958344
      35App    5.158274    71Ap     5.170953    72Ap     5.316138
      73Ap     5.375102    36App    5.522753    74Ap     5.703623
      75Ap     6.188773    37App    6.419201    76Ap     6.419229
      38App    6.448100    77Ap     6.451266    78Ap     6.537065
      39App    6.575584    79Ap     6.606355    80Ap     6.681256
      40App    6.728584    81Ap     6.903818    41App    7.004550
      82Ap     7.005315    42App    7.042161    83Ap     7.070972
      84Ap     7.129867    43App    7.151126    44App    7.274807
      45App    7.325215    85Ap     7.331374    86Ap     7.360895
      46App    7.444147    87Ap     7.666453    88Ap     7.948478
      89Ap     7.968939    90Ap     8.805387    91Ap     9.465584
      92Ap    16.544162

    Final Occupation by Irrep:
             Ap   App
    DOCC [     7,    1 ]
    SOCC [     1,    1 ]

  @UHF Final Energy:  -150.87443821930839

   => Energetics <=

    Nuclear Repulsion Energy =             22.8529394270448130
    One-Electron Energy =                -253.4918478282921797
    Two-Electron Energy =                  79.7644701819389894
    Total Energy =                       -150.8744382193083879

  UHF NO Occupations:
  HONO-2 :    7 Ap 1.9970294
  HONO-1 :    8 Ap 1.0000000
  HONO-0 :    2App 1.0000000
  LUNO+0 :    9 Ap 0.0029706
  LUNO+1 :   10 Ap 0.0017122
  LUNO+2 :   11 Ap 0.0000024
  LUNO+3 :   12 Ap 0.0000019

Computation Completed

Properties will be evaluated at   0.000000,   0.000000,   0.000000 [a0]

Properties computed using the SCF density matrix

  Nuclear Dipole Moment: [e a0]
     X:    -2.1947      Y:     0.8262      Z:     0.0000

  Electronic Dipole Moment: [e a0]
     X:     2.7554      Y:    -0.2132      Z:     0.0000

  Dipole Moment: [e a0]
     X:     0.5607      Y:     0.6130      Z:     0.0000     Total:     0.8307

  Dipole Moment: [D]
     X:     1.4251      Y:     1.5581      Z:     0.0000     Total:     2.1115

*** tstop() called on c5-7.compute.lan at Tue Mar  9 14:46:07 2021
Module time:
	user time   =      60.99 seconds =       1.02 minutes
	system time =       1.56 seconds =       0.03 minutes
	total time  =          8 seconds =       0.13 minutes
Total time:
	user time   =      60.99 seconds =       1.02 minutes
	system time =       1.56 seconds =       0.03 minutes
	total time  =          8 seconds =       0.13 minutes
 MINTS: Wrapper to libmints.
   by Justin Turney

   Calculation information:
      Number of threads:                12
      Number of atoms:                   4
      Number of AO shells:              46
      Number of SO shells:              46
      Number of primitives:             82
      Number of atomic orbitals:       160
      Number of basis functions:       138

      Number of irreps:                  2
      Integral cutoff                 0.00e+00
      Number of functions per irrep: [  92   46 ]

 OEINTS: Overlap, kinetic, potential, dipole, and quadrupole integrals
         stored in file 35.

      Computing two-electron integrals...done
      Computed 22945146 non-zero two-electron integrals.
        Stored in file 33.

*** tstart() called on c5-7.compute.lan
*** at Tue Mar  9 14:46:10 2021

	Wfn Parameters:
	--------------------
	Wavefunction         = CCSD_T
	Number of irreps     = 2
	Number of MOs        = 138
	Number of active MOs = 136
	AO-Basis             = NONE
	Semicanonical        = false
	Reference            = UHF
	Print Level          = 1

	IRREP	# MOs	# FZDC	# DOCC	# SOCC	# VIRT	# FZVR
	-----	-----	------	------	------	------	------
	 Ap	   92	    2	    5	    1	    84	    0
	 App	   46	    0	    1	    1	    44	    0
	Transforming integrals...
	IWL integrals will be deleted.
	(OO|OO)...
	Presorting SO-basis two-electron integrals.
	Sorting File: SO Ints (nn|nn) nbuckets = 1
	Transforming the one-electron integrals and constructing Fock matrices
	Starting AA/AB first half-transformation.
	Sorting AA/AB half-transformed integrals.
	Starting BB first half-transformation.
	Sorting BB half-transformed integrals.
	First half integral transformation complete.
	Starting AA second half-transformation.
	Starting AB second half-transformation.
	Starting BB second half-transformation.
	Two-electron integral transformation complete.
	(OO|OV)...
	Starting AA second half-transformation.
	Starting AB second half-transformation.
	Starting BB second half-transformation.
	Two-electron integral transformation complete.
	(OO|VV)...
	Starting AA second half-transformation.
	Starting AB second half-transformation.
	Starting BB second half-transformation.
	Two-electron integral transformation complete.
	(OV|OO)...
	Starting AA/AB first half-transformation.
	Sorting AA/AB half-transformed integrals.
	Starting BB first half-transformation.
	Sorting BB half-transformed integrals.
	First half integral transformation complete.
	Starting AA second half-transformation.
	Starting AB second half-transformation.
	Starting BB second half-transformation.
	Two-electron integral transformation complete.
	(OV|OV)...
	Starting AA second half-transformation.
	Starting AB second half-transformation.
	Starting BB second half-transformation.
	Two-electron integral transformation complete.
	(OV|VV)...
	Starting AA second half-transformation.
	Starting AB second half-transformation.
	Starting BB second half-transformation.
	Two-electron integral transformation complete.
	(VV|OO)...
	Starting AA/AB first half-transformation.
	Sorting AA/AB half-transformed integrals.
	Starting BB first half-transformation.
	Sorting BB half-transformed integrals.
	First half integral transformation complete.
	Starting AA second half-transformation.
	Starting AB second half-transformation.
	Starting BB second half-transformation.
	Two-electron integral transformation complete.
	(VV|OV)...
	Starting AA second half-transformation.
	Starting AB second half-transformation.
	Starting BB second half-transformation.
	Two-electron integral transformation complete.
	(VV|VV)...
	Starting AA second half-transformation.
	Starting AB second half-transformation.
	Starting BB second half-transformation.
	Two-electron integral transformation complete.
	Frozen core energy     =   -125.82923133745717

	Size of irrep 0 of <AB|CD> integrals:     19.643 (MW) /    157.141 (MB)
	Size of irrep 1 of <AB|CD> integrals:     13.660 (MW) /    109.283 (MB)
	Total:                                    33.303 (MW) /    266.424 (MB)

	Size of irrep 0 of <ab|cd> integrals:     20.794 (MW) /    166.349 (MB)
	Size of irrep 1 of <ab|cd> integrals:     14.631 (MW) /    117.045 (MB)
	Total:                                    35.424 (MW) /    283.394 (MB)

	Size of irrep 0 of <Ab|Cd> integrals:     83.174 (MW) /    665.395 (MB)
	Size of irrep 1 of <Ab|Cd> integrals:     56.550 (MW) /    452.403 (MB)
	Total:                                   139.725 (MW) /   1117.798 (MB)

	Size of irrep 0 of <IA|BC> integrals:      5.323 (MW) /     42.586 (MB)
	Size of irrep 1 of <IA|BC> integrals:      3.193 (MW) /     25.547 (MB)
	Total:                                     8.517 (MW) /     68.133 (MB)

	Size of irrep 0 of <ia|bc> integrals:      4.348 (MW) /     34.780 (MB)
	Size of irrep 1 of <ia|bc> integrals:      2.372 (MW) /     18.972 (MB)
	Total:                                     6.719 (MW) /     53.752 (MB)

	Size of irrep 0 of <Ia|Bc> integrals:      5.472 (MW) /     43.776 (MB)
	Size of irrep 1 of <Ia|Bc> integrals:      3.309 (MW) /     26.470 (MB)
	Total:                                     8.781 (MW) /     70.246 (MB)

	Size of irrep 0 of <iA|bC> integrals:      4.232 (MW) /     33.853 (MB)
	Size of irrep 1 of <iA|bC> integrals:      2.286 (MW) /     18.289 (MB)
	Total:                                     6.518 (MW) /     52.142 (MB)

	Size of irrep 0 of tIjAb amplitudes:       0.292 (MW) /      2.335 (MB)
	Size of irrep 1 of tIjAb amplitudes:       0.120 (MW) /      0.963 (MB)
	Total:                                     0.412 (MW) /      3.297 (MB)

	Nuclear Rep. energy          =     22.85293942704481
	SCF energy                   =   -150.87443821930839
	One-electron energy          =    -84.34072029934289
	Two-electron (AA) energy     =     10.12474296483912
	Two-electron (BB) energy     =      5.38729332435644
	Two-electron (AB) energy     =     20.93053770124904
	Two-electron energy          =     36.44257399044460
	Reference energy             =   -150.87443821931063

*** tstop() called on c5-7.compute.lan at Tue Mar  9 14:47:06 2021
Module time:
	user time   =     266.85 seconds =       4.45 minutes
	system time =      20.75 seconds =       0.35 minutes
	total time  =         56 seconds =       0.93 minutes
Total time:
	user time   =     333.99 seconds =       5.57 minutes
	system time =      22.97 seconds =       0.38 minutes
	total time  =         67 seconds =       1.12 minutes
            **************************
            *                        *
            *        CCENERGY        *
            *                        *
            **************************

    Nuclear Rep. energy (wfn)     =   22.852939427044813
    SCF energy          (wfn)     = -150.874438219308388
    Reference energy    (file100) = -150.874438219310633

    Input parameters:
    -----------------
    Wave function   =     CCSD_T
    Reference wfn   =     UHF
    Brueckner       =     No
    Memory (Mbytes) =     4000.0
    Maxiter         =     50
    R_Convergence   =     1.0e-10
    E_Convergence   =     1.0e-10
    Restart         =     Yes
    DIIS            =     Yes
    AO Basis        =     NONE
    ABCD            =     NEW
    Cache Level     =     2
    Cache Type      =     LRU
    Print Level     =     1
    Num. of threads =     12
    # Amps to Print =     10
    Print MP2 Amps? =     No
    Analyze T2 Amps =     No
    Print Pair Ener =     No
    Local CC        =     No
    SCS-MP2         =     False
    SCSN-MP2        =     False
    SCS-CCSD        =     False

MP2 correlation energy -0.4165290253434936
                Solving CC Amplitude Equations
                ------------------------------
  Iter             Energy              RMS        T1Diag      D1Diag    New D1Diag    D2Diag
  ----     ---------------------    ---------   ----------  ----------  ----------   --------
     0        -0.416529025343494    0.000e+00    0.000000    0.000000    0.000000    0.000000
     1        -0.427273885724082    5.682e-02    0.010536    0.000000    0.000000    0.000000
     2        -0.435361153348585    1.687e-02    0.011024    0.000000    0.000000    0.000000
     3        -0.437476181575741    8.568e-03    0.012893    0.000000    0.000000    0.000000
     4        -0.437351278226932    2.534e-03    0.013260    0.000000    0.000000    0.000000
     5        -0.437336140946642    1.328e-03    0.013418    0.000000    0.000000    0.000000
     6        -0.437363501832880    5.166e-04    0.013441    0.000000    0.000000    0.000000
     7        -0.437368330810225    2.681e-04    0.013436    0.000000    0.000000    0.000000
     8        -0.437368888149646    9.708e-05    0.013431    0.000000    0.000000    0.000000
     9        -0.437370301004475    6.983e-05    0.013433    0.000000    0.000000    0.000000
    10        -0.437368741877394    5.852e-05    0.013433    0.000000    0.000000    0.000000
    11        -0.437368866359351    5.527e-05    0.013435    0.000000    0.000000    0.000000
    12        -0.437368670100927    5.355e-05    0.013436    0.000000    0.000000    0.000000
    13        -0.437368648672348    5.259e-05    0.013438    0.000000    0.000000    0.000000
    14        -0.437369575843353    5.128e-05    0.013449    0.000000    0.000000    0.000000
    15        -0.437369919285317    4.680e-05    0.013496    0.000000    0.000000    0.000000
    16        -0.437369676463829    3.372e-05    0.013617    0.000000    0.000000    0.000000
    17        -0.437369389223137    1.710e-05    0.013690    0.000000    0.000000    0.000000
    18        -0.437369241224125    8.032e-06    0.013711    0.000000    0.000000    0.000000
    19        -0.437369484992009    3.532e-06    0.013717    0.000000    0.000000    0.000000
    20        -0.437369604014449    1.555e-06    0.013718    0.000000    0.000000    0.000000
    21        -0.437369610341506    6.213e-07    0.013718    0.000000    0.000000    0.000000
    22        -0.437369611278366    2.799e-07    0.013718    0.000000    0.000000    0.000000
    23        -0.437369610611464    1.399e-07    0.013718    0.000000    0.000000    0.000000
    24        -0.437369609816382    5.329e-08    0.013718    0.000000    0.000000    0.000000
    25        -0.437369610709484    2.637e-08    0.013718    0.000000    0.000000    0.000000
    26        -0.437369611137046    1.838e-08    0.013718    0.000000    0.000000    0.000000
    27        -0.437369611261476    1.670e-08    0.013718    0.000000    0.000000    0.000000
    28        -0.437369611241132    1.611e-08    0.013718    0.000000    0.000000    0.000000
    29        -0.437369611149750    1.570e-08    0.013718    0.000000    0.000000    0.000000
    30        -0.437369610969175    1.519e-08    0.013718    0.000000    0.000000    0.000000
    31        -0.437369611005892    1.366e-08    0.013718    0.000000    0.000000    0.000000
    32        -0.437369611243513    8.673e-09    0.013718    0.000000    0.000000    0.000000
    33        -0.437369611329689    4.015e-09    0.013718    0.000000    0.000000    0.000000
    34        -0.437369611384473    1.729e-09    0.013718    0.000000    0.000000    0.000000
    35        -0.437369611390741    6.739e-10    0.013718    0.000000    0.000000    0.000000
    36        -0.437369611389842    2.655e-10    0.013718    0.000000    0.000000    0.000000

      * MP2 total energy                      = -151.290967244654126
      * CCSD total energy                     = -151.311807830699905
      * CCSD(T) total energy                     = -151.324159090797991
*** Psi4 exiting successfully. Buy a developer a beer!
