                               Psi4 1.3.2 release

  ==> Input File <==

--------------------------------------------------------------------------
memory 4 GB

molecule  {
0 3
O   -1.504262781504   -0.001191536185    0.000000000000
H   -0.556937952930    0.154422277183    0.000000000000
H   -1.894059752161    0.878595097673    0.000000000000
O    1.658697919164   -0.063897949684    0.000000000000
}
set {
basis aug-cc-pvtz
reference uhf
e_convergence 10
scf_type pk
freeze_core true
}

set ccenergy {
e_convergence 10
r_convergence 10
}

e = energy('ccsd(t)')

print_out('Stephenergy {}'.format(e))

--------------------------------------------------------------------------

    Molecular point group: cs

    Geometry (in Angstrom), charge = 0, multiplicity = 3:

       Center              X                  Y                   Z               Mass
    ------------   -----------------  -----------------  -----------------  -----------------
         O           -1.504262781504    -0.001191536185     0.000000000000    15.994914619570
         H           -0.556937952930     0.154422277183     0.000000000000     1.007825032230
         H           -1.894059752161     0.878595097673     0.000000000000     1.007825032230
         O            1.658697919164    -0.063897949684     0.000000000000    15.994914619570

  Charge       = 0
  Multiplicity = 3
  Basis Set: AUG-CC-PVTZ
    Blend: AUG-CC-PVTZ

    Orbital Energies [Eh]
    ---------------------

    Alpha Occupied:

       1Ap   -20.732934     2Ap   -20.558634     3Ap    -1.442263
       4Ap    -1.343433     5Ap    -0.733050     1App   -0.732665
       6Ap    -0.710844     7Ap    -0.634352     8Ap    -0.575111
       2App   -0.502019

    Alpha Virtual:

       9Ap     0.034200    10Ap     0.053488    11Ap     0.128183
       3App    0.132923    12Ap     0.148151    13Ap     0.160760
      14Ap     0.183888     4App    0.186767    15Ap     0.214118
      16Ap     0.242107    17Ap     0.264330     5App    0.286336
      18Ap     0.303849     6App    0.320783    19Ap     0.364907
      20Ap     0.406178    21Ap     0.460274    22Ap     0.568442
       7App    0.602697    23Ap     0.608821    24Ap     0.627458
      25Ap     0.681956     8App    0.709534    26Ap     0.714762
       9App    0.736599    10App    0.748477    27Ap     0.751223
      28Ap     0.811593    11App    0.826057    29Ap     0.837303
      12App    0.890866    30Ap     0.891396    31Ap     0.922993
      32Ap     0.945060    13App    0.947508    33Ap     0.951348
      14App    0.971606    34Ap     0.979293    35Ap     1.042943
      36Ap     1.135819    15App    1.154004    37Ap     1.170450
      38Ap     1.185618    39Ap     1.260428    16App    1.294725
      40Ap     1.316601    17App    1.527397    41Ap     1.587151
      18App    1.598859    42Ap     1.714640    43Ap     1.809884
      44Ap     1.842173    45Ap     1.977644    19App    1.977821
      46Ap     1.978693    20App    2.013282    47Ap     2.018108
      21App    2.048353    48Ap     2.060521    22App    2.122299
      49Ap     2.152744    50Ap     2.176087    23App    2.212367
      24App    2.302464    51Ap     2.311908    52Ap     2.338012
      53Ap     2.414768    25App    2.441895    54Ap     2.457129
      55Ap     2.491705    26App    2.526559    56Ap     2.630667
      57Ap     2.712295    27App    2.727258    58Ap     2.734845
      59Ap     2.860479    60Ap     2.934548    28App    2.943207
      61Ap     3.695391    62Ap     3.893208    29App    4.036374
      30App    4.063092    63Ap     4.074164    31App    4.178839
      64Ap     4.210331    65Ap     4.266120    32App    4.303311
      33App    4.391628    66Ap     4.407728    34App    4.430854
      67Ap     4.445350    68Ap     4.602264    69Ap     4.778921
      70Ap     4.959638    35App    5.158272    71Ap     5.173646
      72Ap     5.299853    73Ap     5.394638    36App    5.528384
      74Ap     5.694062    75Ap     6.189976    37App    6.312480
      76Ap     6.312511    38App    6.375476    77Ap     6.378198
      39App    6.517732    78Ap     6.519088    79Ap     6.559346
      80Ap     6.636900    40App    6.735866    81Ap     6.814549
      41App    6.820193    82Ap     6.922238    42App    6.937008
      83Ap     6.961618    84Ap     7.050981    43App    7.149493
      44App    7.272046    85Ap     7.327522    45App    7.328401
      86Ap     7.365503    46App    7.435140    87Ap     7.650436
      88Ap     7.948721    89Ap     7.963341    90Ap     8.814617
      91Ap     9.512509    92Ap    16.347054

    Beta Occupied:

       1Ap   -20.654152     2Ap   -20.558762     3Ap    -1.343999
       4Ap    -1.099799     5Ap    -0.710092     6Ap    -0.579970
       7Ap    -0.541190     1App   -0.502060

    Beta Virtual:

       8Ap     0.034355     2App    0.049451     9Ap     0.049675
      10Ap     0.055211    11Ap     0.143823    12Ap     0.152957
       3App    0.161152    13Ap     0.178038    14Ap     0.207843
      15Ap     0.225439     4App    0.227252    16Ap     0.250867
      17Ap     0.265602     5App    0.286544    18Ap     0.305986
       6App    0.324504    19Ap     0.368808    20Ap     0.417047
      21Ap     0.461560    22Ap     0.572009    23Ap     0.628240
       7App    0.635097    24Ap     0.640515    25Ap     0.686731
      26Ap     0.715417     8App    0.721649     9App    0.739739
      10App    0.750112    27Ap     0.767857    28Ap     0.817972
      29Ap     0.867716    11App    0.868988    30Ap     0.920118
      12App    0.941712    31Ap     0.941828    13App    0.949678
      32Ap     0.952752    33Ap     0.970327    34Ap     1.017763
      14App    1.020181    35Ap     1.045279    15App    1.157151
      36Ap     1.163444    37Ap     1.173804    38Ap     1.216845
      39Ap     1.263538    16App    1.305317    40Ap     1.325340
      17App    1.528087    41Ap     1.589432    18App    1.600316
      42Ap     1.740917    43Ap     1.815321    44Ap     1.852854
      45Ap     1.986379    46Ap     2.015787    19App    2.015798
      20App    2.053661    47Ap     2.065319    21App    2.170243
      48Ap     2.176107    22App    2.179689    49Ap     2.194091
      50Ap     2.244667    23App    2.249855    24App    2.305877
      51Ap     2.317365    52Ap     2.360781    53Ap     2.419342
      25App    2.444583    54Ap     2.457918    55Ap     2.497989
      26App    2.534988    56Ap     2.637763    27App    2.728586
      57Ap     2.729020    58Ap     2.738446    59Ap     2.862306
      60Ap     2.939034    28App    2.943829    61Ap     3.696056
      62Ap     3.895545    29App    4.039337    30App    4.147534
      63Ap     4.194189    64Ap     4.245228    31App    4.262715
      65Ap     4.276816    32App    4.303369    33App    4.391697
      66Ap     4.411444    34App    4.431538    67Ap     4.489715
      68Ap     4.604792    69Ap     4.780540    70Ap     4.961594
      35App    5.158258    71Ap     5.173928    72Ap     5.300085
      73Ap     5.395889    36App    5.528445    74Ap     5.694420
      75Ap     6.191194    76Ap     6.421332    37App    6.421337
      38App    6.450663    77Ap     6.453421    78Ap     6.534233
      39App    6.571649    79Ap     6.600101    80Ap     6.681921
      40App    6.741801    81Ap     6.924127    41App    7.005266
      82Ap     7.006949    42App    7.046380    83Ap     7.068387
      84Ap     7.130715    43App    7.151862    44App    7.272258
      85Ap     7.327806    45App    7.329154    86Ap     7.366329
      46App    7.435545    87Ap     7.651304    88Ap     7.949904
      89Ap     7.963530    90Ap     8.816147    91Ap     9.587497
      92Ap    16.347331

    Final Occupation by Irrep:
             Ap   App
    DOCC [     7,    1 ]
    SOCC [     1,    1 ]

  @UHF Final Energy:  -150.87454512739276

   => Energetics <=

    Nuclear Repulsion Energy =             22.9157308667530373
    One-Electron Energy =                -253.6252238327679720
    Two-Electron Energy =                  79.8349478386221847
    Total Energy =                       -150.8745451273927358

  UHF NO Occupations:
  HONO-2 :    7 Ap 1.9970287
  HONO-1 :    2App 1.0000000
  HONO-0 :    8 Ap 1.0000000
  LUNO+0 :    9 Ap 0.0029713
  LUNO+1 :   10 Ap 0.0017149
  LUNO+2 :   11 Ap 0.0000024
  LUNO+3 :   12 Ap 0.0000017

Computation Completed

Properties will be evaluated at   0.000000,   0.000000,   0.000000 [a0]

Properties computed using the SCF density matrix

  Nuclear Dipole Moment: [e a0]
     X:    -2.2970      Y:     0.9681      Z:     0.0000

  Electronic Dipole Moment: [e a0]
     X:     2.7581      Y:    -0.2933      Z:     0.0000

  Dipole Moment: [e a0]
     X:     0.4611      Y:     0.6748      Z:     0.0000     Total:     0.8173

  Dipole Moment: [D]
     X:     1.1721      Y:     1.7151      Z:     0.0000     Total:     2.0773

*** tstop() called on c4-4.compute.lan at Wed Mar 10 10:57:48 2021
Module time:
	user time   =      64.65 seconds =       1.08 minutes
	system time =       1.17 seconds =       0.02 minutes
	total time  =          6 seconds =       0.10 minutes
Total time:
	user time   =      64.65 seconds =       1.08 minutes
	system time =       1.17 seconds =       0.02 minutes
	total time  =          6 seconds =       0.10 minutes
 MINTS: Wrapper to libmints.
   by Justin Turney

   Calculation information:
      Number of threads:                12
      Number of atoms:                   4
      Number of AO shells:              46
      Number of SO shells:              46
      Number of primitives:             82
      Number of atomic orbitals:       160
      Number of basis functions:       138

      Number of irreps:                  2
      Integral cutoff                 0.00e+00
      Number of functions per irrep: [  92   46 ]

 OEINTS: Overlap, kinetic, potential, dipole, and quadrupole integrals
         stored in file 35.

      Computing two-electron integrals...done
      Computed 22933140 non-zero two-electron integrals.
        Stored in file 33.

*** tstart() called on c4-4.compute.lan
*** at Wed Mar 10 10:57:51 2021

	Wfn Parameters:
	--------------------
	Wavefunction         = CCSD_T
	Number of irreps     = 2
	Number of MOs        = 138
	Number of active MOs = 136
	AO-Basis             = NONE
	Semicanonical        = false
	Reference            = UHF
	Print Level          = 1

	IRREP	# MOs	# FZDC	# DOCC	# SOCC	# VIRT	# FZVR
	-----	-----	------	------	------	------	------
	 Ap	   92	    2	    5	    1	    84	    0
	 App	   46	    0	    1	    1	    44	    0
	Transforming integrals...
	IWL integrals will be deleted.
	(OO|OO)...
	Presorting SO-basis two-electron integrals.
	Sorting File: SO Ints (nn|nn) nbuckets = 1
	Transforming the one-electron integrals and constructing Fock matrices
	Starting AA/AB first half-transformation.
	Sorting AA/AB half-transformed integrals.
	Starting BB first half-transformation.
	Sorting BB half-transformed integrals.
	First half integral transformation complete.
	Starting AA second half-transformation.
	Starting AB second half-transformation.
	Starting BB second half-transformation.
	Two-electron integral transformation complete.
	(OO|OV)...
	Starting AA second half-transformation.
	Starting AB second half-transformation.
	Starting BB second half-transformation.
	Two-electron integral transformation complete.
	(OO|VV)...
	Starting AA second half-transformation.
	Starting AB second half-transformation.
	Starting BB second half-transformation.
	Two-electron integral transformation complete.
	(OV|OO)...
	Starting AA/AB first half-transformation.
	Sorting AA/AB half-transformed integrals.
	Starting BB first half-transformation.
	Sorting BB half-transformed integrals.
	First half integral transformation complete.
	Starting AA second half-transformation.
	Starting AB second half-transformation.
	Starting BB second half-transformation.
	Two-electron integral transformation complete.
	(OV|OV)...
	Starting AA second half-transformation.
	Starting AB second half-transformation.
	Starting BB second half-transformation.
	Two-electron integral transformation complete.
	(OV|VV)...
	Starting AA second half-transformation.
	Starting AB second half-transformation.
	Starting BB second half-transformation.
	Two-electron integral transformation complete.
	(VV|OO)...
	Starting AA/AB first half-transformation.
	Sorting AA/AB half-transformed integrals.
	Starting BB first half-transformation.
	Sorting BB half-transformed integrals.
	First half integral transformation complete.
	Starting AA second half-transformation.
	Starting AB second half-transformation.
	Starting BB second half-transformation.
	Two-electron integral transformation complete.
	(VV|OV)...
	Starting AA second half-transformation.
	Starting AB second half-transformation.
	Starting BB second half-transformation.
	Two-electron integral transformation complete.
	(VV|VV)...
	Starting AA second half-transformation.
	Starting AB second half-transformation.
	Starting BB second half-transformation.
	Two-electron integral transformation complete.
	Frozen core energy     =   -125.86014498997469

	Size of irrep 0 of <AB|CD> integrals:     19.643 (MW) /    157.141 (MB)
	Size of irrep 1 of <AB|CD> integrals:     13.660 (MW) /    109.283 (MB)
	Total:                                    33.303 (MW) /    266.424 (MB)

	Size of irrep 0 of <ab|cd> integrals:     20.794 (MW) /    166.349 (MB)
	Size of irrep 1 of <ab|cd> integrals:     14.631 (MW) /    117.045 (MB)
	Total:                                    35.424 (MW) /    283.394 (MB)

	Size of irrep 0 of <Ab|Cd> integrals:     83.174 (MW) /    665.395 (MB)
	Size of irrep 1 of <Ab|Cd> integrals:     56.550 (MW) /    452.403 (MB)
	Total:                                   139.725 (MW) /   1117.798 (MB)

	Size of irrep 0 of <IA|BC> integrals:      5.323 (MW) /     42.586 (MB)
	Size of irrep 1 of <IA|BC> integrals:      3.193 (MW) /     25.547 (MB)
	Total:                                     8.517 (MW) /     68.133 (MB)

	Size of irrep 0 of <ia|bc> integrals:      4.348 (MW) /     34.780 (MB)
	Size of irrep 1 of <ia|bc> integrals:      2.372 (MW) /     18.972 (MB)
	Total:                                     6.719 (MW) /     53.752 (MB)

	Size of irrep 0 of <Ia|Bc> integrals:      5.472 (MW) /     43.776 (MB)
	Size of irrep 1 of <Ia|Bc> integrals:      3.309 (MW) /     26.470 (MB)
	Total:                                     8.781 (MW) /     70.246 (MB)

	Size of irrep 0 of <iA|bC> integrals:      4.232 (MW) /     33.853 (MB)
	Size of irrep 1 of <iA|bC> integrals:      2.286 (MW) /     18.289 (MB)
	Total:                                     6.518 (MW) /     52.142 (MB)

	Size of irrep 0 of tIjAb amplitudes:       0.292 (MW) /      2.335 (MB)
	Size of irrep 1 of tIjAb amplitudes:       0.120 (MW) /      0.963 (MB)
	Total:                                     0.412 (MW) /      3.297 (MB)

	Nuclear Rep. energy          =     22.91573086675304
	SCF energy                   =   -150.87454512739276
	One-electron energy          =    -84.40941548996824
	Two-electron (AA) energy     =     10.13704016680111
	Two-electron (BB) energy     =      5.39286876906253
	Two-electron (AB) energy     =     20.94937554993238
	Two-electron energy          =     36.47928448579601
	Reference energy             =   -150.87454512739384

*** tstop() called on c4-4.compute.lan at Wed Mar 10 10:58:25 2021
Module time:
	user time   =     107.60 seconds =       1.79 minutes
	system time =      18.68 seconds =       0.31 minutes
	total time  =         34 seconds =       0.57 minutes
Total time:
	user time   =     178.52 seconds =       2.98 minutes
	system time =      20.40 seconds =       0.34 minutes
	total time  =         43 seconds =       0.72 minutes
            **************************
            *                        *
            *        CCENERGY        *
            *                        *
            **************************

    Nuclear Rep. energy (wfn)     =   22.915730866753037
    SCF energy          (wfn)     = -150.874545127392764
    Reference energy    (file100) = -150.874545127393844

    Input parameters:
    -----------------
    Wave function   =     CCSD_T
    Reference wfn   =     UHF
    Brueckner       =     No
    Memory (Mbytes) =     4000.0
    Maxiter         =     50
    R_Convergence   =     1.0e-10
    E_Convergence   =     1.0e-10
    Restart         =     Yes
    DIIS            =     Yes
    AO Basis        =     NONE
    ABCD            =     NEW
    Cache Level     =     2
    Cache Type      =     LRU
    Print Level     =     1
    Num. of threads =     12
    # Amps to Print =     10
    Print MP2 Amps? =     No
    Analyze T2 Amps =     No
    Print Pair Ener =     No
    Local CC        =     No
    SCS-MP2         =     False
    SCSN-MP2        =     False
    SCS-CCSD        =     False

MP2 correlation energy -0.4165315054575891
                Solving CC Amplitude Equations
                ------------------------------
  Iter             Energy              RMS        T1Diag      D1Diag    New D1Diag    D2Diag
  ----     ---------------------    ---------   ----------  ----------  ----------   --------
     0        -0.416531505457589    0.000e+00    0.000000    0.000000    0.000000    0.000000
     1        -0.427273818180085    5.683e-02    0.010540    0.000000    0.000000    0.000000
     2        -0.435354030520340    1.687e-02    0.011021    0.000000    0.000000    0.000000
     3        -0.437472095856421    8.562e-03    0.012889    0.000000    0.000000    0.000000
     4        -0.437346306455833    2.533e-03    0.013256    0.000000    0.000000    0.000000
     5        -0.437331907497452    1.318e-03    0.013412    0.000000    0.000000    0.000000
     6        -0.437359128304903    5.140e-04    0.013433    0.000000    0.000000    0.000000
     7        -0.437363743657501    2.636e-04    0.013428    0.000000    0.000000    0.000000
     8        -0.437364343125946    9.919e-05    0.013423    0.000000    0.000000    0.000000
     9        -0.437365706589873    7.407e-05    0.013424    0.000000    0.000000    0.000000
    10        -0.437364159536302    6.409e-05    0.013425    0.000000    0.000000    0.000000
    11        -0.437364303816498    6.129e-05    0.013426    0.000000    0.000000    0.000000
    12        -0.437364014701962    5.963e-05    0.013429    0.000000    0.000000    0.000000
    13        -0.437364003759285    5.849e-05    0.013432    0.000000    0.000000    0.000000
    14        -0.437365179287905    5.660e-05    0.013451    0.000000    0.000000    0.000000
    15        -0.437365559419129    5.004e-05    0.013524    0.000000    0.000000    0.000000
    16        -0.437365337918124    3.345e-05    0.013665    0.000000    0.000000    0.000000
    17        -0.437364993282836    1.616e-05    0.013735    0.000000    0.000000    0.000000
    18        -0.437364865048269    7.574e-06    0.013752    0.000000    0.000000    0.000000
    19        -0.437365124358995    3.347e-06    0.013757    0.000000    0.000000    0.000000
    20        -0.437365235890951    1.500e-06    0.013757    0.000000    0.000000    0.000000
    21        -0.437365243790960    5.901e-07    0.013758    0.000000    0.000000    0.000000
    22        -0.437365245004903    2.795e-07    0.013758    0.000000    0.000000    0.000000
    23        -0.437365243904825    1.449e-07    0.013758    0.000000    0.000000    0.000000
    24        -0.437365243240806    6.001e-08    0.013758    0.000000    0.000000    0.000000
    25        -0.437365244199104    3.277e-08    0.013758    0.000000    0.000000    0.000000
    26        -0.437365244656458    2.541e-08    0.013758    0.000000    0.000000    0.000000
    27        -0.437365244815026    2.378e-08    0.013758    0.000000    0.000000    0.000000
    28        -0.437365244763081    2.303e-08    0.013758    0.000000    0.000000    0.000000
    29        -0.437365244600449    2.236e-08    0.013758    0.000000    0.000000    0.000000
    30        -0.437365244336768    2.125e-08    0.013758    0.000000    0.000000    0.000000
    31        -0.437365244537037    1.792e-08    0.013758    0.000000    0.000000    0.000000
    32        -0.437365244878814    9.346e-09    0.013758    0.000000    0.000000    0.000000
    33        -0.437365244978776    4.088e-09    0.013758    0.000000    0.000000    0.000000
    34        -0.437365245029192    1.670e-09    0.013758    0.000000    0.000000    0.000000
    35        -0.437365245035698    6.612e-10    0.013758    0.000000    0.000000    0.000000
    36        -0.437365245035349    2.831e-10    0.013758    0.000000    0.000000    0.000000

      * MP2 total energy                      = -151.291076632851428
      * CCSD total energy                     = -151.311910372428400
      * CCSD(T) total energy                     = -151.324254660832082
*** Psi4 exiting successfully. Buy a developer a beer!
