                               Psi4 1.3.2 release

  ==> Input File <==

--------------------------------------------------------------------------
memory 4 GB

molecule  {
0 3
O    0.000000000000    0.000000000000   -1.261379187475
H    0.000000000000   -0.760526118468   -0.671653124075
H   -0.000000000000    0.760526118468   -0.671653124075
O    0.000000000000    0.000000000000    1.346019693225
}
set {
basis aug-cc-pvtz
reference uhf
e_convergence 10
scf_type pk
freeze_core true
}

set ccenergy {
e_convergence 10
r_convergence 10
}

e = energy('ccsd(t)')

print_out('Stephenergy {}'.format(e))

--------------------------------------------------------------------------

    Molecular point group: c2v

    Geometry (in Angstrom), charge = 0, multiplicity = 3:

       Center              X                  Y                   Z               Mass
    ------------   -----------------  -----------------  -----------------  -----------------
         O           -0.000000000000     0.000000000000    -1.261379187475    15.994914619570
         H            0.000000000000    -0.760526118468    -0.671653124075     1.007825032230
         H           -0.000000000000     0.760526118468    -0.671653124075     1.007825032230
         O           -0.000000000000     0.000000000000     1.346019693225    15.994914619570

  Charge       = 0
  Multiplicity = 3
  Basis Set: AUG-CC-PVTZ
    Blend: AUG-CC-PVTZ

    Orbital Energies [Eh]
    ---------------------

    Alpha Occupied:

       1A1   -20.734927     2A1   -20.567863     3A1    -1.448340
       4A1    -1.353992     5A1    -0.746373     1B1    -0.736509
       1B2    -0.718423     2B2    -0.636437     6A1    -0.581779
       2B1    -0.511179

    Alpha Virtual:

       7A1     0.036769     3B2     0.050231     8A1     0.119811
       3B1     0.130618     9A1     0.155654     4B2     0.166266
       4B1     0.189627     5B2     0.190719    10A1     0.192424
       1A2     0.263507    11A1     0.264113     6B2     0.274227
      12A1     0.289322     5B1     0.335536     7B2     0.393845
      13A1     0.404022    14A1     0.453614     8B2     0.475219
       9B2     0.632152     2A2     0.644418     6B1     0.651050
      15A1     0.659302    16A1     0.678553    17A1     0.709914
       3A2     0.723632    18A1     0.735147    10B2     0.766197
       7B1     0.789681     8B1     0.838252    19A1     0.881957
      11B2     0.887044     9B1     0.921719    12B2     0.942886
      20A1     0.979218     4A2     0.980702    21A1     1.024712
      10B1     1.027308    13B2     1.057407    22A1     1.092741
      14B2     1.123377    23A1     1.140124     5A2     1.207777
      11B1     1.219852    24A1     1.238904    15B2     1.250340
      16B2     1.437782     6A2     1.510414    25A1     1.562916
      12B1     1.581918    17B2     1.761663    26A1     1.805115
      27A1     1.849372    18B2     1.949784    13B1     2.004609
      28A1     2.030098    14B1     2.037197     7A2     2.073972
      19B2     2.075711    29A1     2.088259    30A1     2.167467
      15B1     2.169639     8A2     2.178584    20B2     2.204854
      31A1     2.205592     9A2     2.373168    32A1     2.378869
      16B1     2.423638    21B2     2.437576    33A1     2.460192
      17B1     2.511949    22B2     2.521615    34A1     2.538558
      18B1     2.731719    35A1     2.731899    23B2     2.748751
      10A2     2.882423    36A1     2.892477    24B2     2.937534
      25B2     3.680554    37A1     3.815499    11A2     4.033939
      19B1     4.074785    20B1     4.109614    38A1     4.207310
      26B2     4.230314    21B1     4.309057    27B2     4.315237
      12A2     4.380845    22B1     4.442100    39A1     4.452985
      40A1     4.579277    28B2     4.653591    41A1     4.747465
      29B2     4.897100    13A2     5.153035    30B2     5.155068
      31B2     5.272405    42A1     5.365807    23B1     5.515182
      43A1     5.690784    44A1     6.224085    24B1     6.390490
      32B2     6.398692    25B1     6.423334    14A2     6.442695
      45A1     6.462018    33B2     6.529131    46A1     6.586629
      34B2     6.700083    26B1     6.768579    27B1     6.879596
      47A1     6.882231    15A2     6.894593    48A1     6.964850
      49A1     6.981690    35B2     7.006069    28B1     7.166547
      29B1     7.259094    16A2     7.308434    17A2     7.358240
      36B2     7.372490    50A1     7.375855    51A1     7.586671
      37B2     7.945132    52A1     7.979732    38B2     8.796755
      53A1     9.750523    54A1    15.767749

    Beta Occupied:

       1A1   -20.656072     2A1   -20.566489     3A1    -1.351095
       4A1    -1.104683     1B2    -0.716686     5A1    -0.581317
       2B2    -0.547060     1B1    -0.509183

    Beta Virtual:

       6A1     0.037559     2B1     0.046468     3B2     0.050582
       7A1     0.052401     8A1     0.141972     3B1     0.159844
       4B2     0.168238     9A1     0.182327     5B2     0.192981
      10A1     0.194058     4B1     0.226537     1A2     0.263792
      11A1     0.267610     6B2     0.274548    12A1     0.297214
       5B1     0.343600     7B2     0.396074    13A1     0.431980
      14A1     0.457760     8B2     0.475345     9B2     0.631845
       2A2     0.658683     6B1     0.670077    15A1     0.673892
      16A1     0.702731    17A1     0.711931     3A2     0.723990
      10B2     0.782200    18A1     0.791619     7B1     0.817925
      19A1     0.891739    11B2     0.901095     8B1     0.917774
       9B1     0.935279    12B2     0.946755     4A2     0.982661
      20A1     0.984838    21A1     1.034635    10B1     1.057444
      13B2     1.058310    22A1     1.113297    14B2     1.132210
      23A1     1.205008     5A2     1.208937    11B1     1.241822
      24A1     1.250247    15B2     1.250668    16B2     1.443889
       6A2     1.510637    12B1     1.582725    25A1     1.583435
      17B2     1.765941    26A1     1.813370    27A1     1.888029
      18B2     1.952894    13B1     2.028024    28A1     2.088524
      19B2     2.090243    14B1     2.103810    29A1     2.137516
       7A2     2.141686     8A2     2.209930    30A1     2.230152
      31A1     2.236055    15B1     2.253449    20B2     2.274776
       9A2     2.381265    32A1     2.414505    16B1     2.453304
      21B2     2.455302    33A1     2.478903    17B1     2.512890
      22B2     2.529307    34A1     2.550843    18B1     2.732783
      35A1     2.744891    23B2     2.752231    10A2     2.882801
      36A1     2.900031    24B2     2.939256    25B2     3.681192
      37A1     3.825913    11A2     4.033575    19B1     4.109292
      20B1     4.227723    38A1     4.240724    26B2     4.249037
      21B1     4.323280    27B2     4.339670    12A2     4.380521
      22B1     4.446434    39A1     4.482168    28B2     4.656152
      40A1     4.669121    41A1     4.749541    29B2     4.898631
      13A2     5.153258    30B2     5.156326    31B2     5.273512
      42A1     5.368302    23B1     5.515627    43A1     5.692447
      44A1     6.229849    24B1     6.447662    32B2     6.456654
      14A2     6.518794    25B1     6.530038    33B2     6.532790
      45A1     6.537852    46A1     6.664854    34B2     6.763470
      26B1     6.770533    47A1     6.961398    15A2     7.007347
      48A1     7.016103    27B1     7.063235    35B2     7.115047
      49A1     7.119198    28B1     7.169717    29B1     7.262219
      16A2     7.309583    17A2     7.359347    36B2     7.373385
      50A1     7.384164    51A1     7.592516    37B2     7.946587
      52A1     7.982843    38B2     8.798654    53A1     9.822264
      54A1    15.768699

    Final Occupation by Irrep:
             A1    A2    B1    B2
    DOCC [     5,    0,    1,    2 ]
    SOCC [     1,    0,    1,    0 ]

  @UHF Final Energy:  -150.86758303784561

   => Energetics <=

    Nuclear Repulsion Energy =             26.0612940444133514
    One-Electron Energy =                -259.7893475105748848
    Two-Electron Energy =                  82.8604704283159208
    Total Energy =                       -150.8675830378456055

  UHF NO Occupations:
  HONO-2 :    5 A1 1.9970623
  HONO-1 :    2 B1 1.0000000
  HONO-0 :    6 A1 1.0000000
  LUNO+0 :    7 A1 0.0029377
  LUNO+1 :    3 B2 0.0017477
  LUNO+2 :    8 A1 0.0002141
  LUNO+3 :    3 B1 0.0000124

Computation Completed

Properties will be evaluated at   0.000000,   0.000000,   0.000000 [a0]

Properties computed using the SCF density matrix

  Nuclear Dipole Moment: [e a0]
     X:    -0.0000      Y:     0.0000      Z:    -1.2589

  Electronic Dipole Moment: [e a0]
     X:     0.0000      Y:     0.0000      Z:     2.0762

  Dipole Moment: [e a0]
     X:    -0.0000      Y:     0.0000      Z:     0.8173     Total:     0.8173

  Dipole Moment: [D]
     X:    -0.0000      Y:     0.0000      Z:     2.0773     Total:     2.0773

*** tstop() called on c5-1.compute.lan at Wed Mar 10 09:16:29 2021
Module time:
	user time   =      45.56 seconds =       0.76 minutes
	system time =       0.69 seconds =       0.01 minutes
	total time  =          5 seconds =       0.08 minutes
Total time:
	user time   =      45.56 seconds =       0.76 minutes
	system time =       0.69 seconds =       0.01 minutes
	total time  =          5 seconds =       0.08 minutes
 MINTS: Wrapper to libmints.
   by Justin Turney

   Calculation information:
      Number of threads:                12
      Number of atoms:                   4
      Number of AO shells:              46
      Number of SO shells:              37
      Number of primitives:             82
      Number of atomic orbitals:       160
      Number of basis functions:       138

      Number of irreps:                  4
      Integral cutoff                 0.00e+00
      Number of functions per irrep: [  54   17   29   38 ]

 OEINTS: Overlap, kinetic, potential, dipole, and quadrupole integrals
         stored in file 35.

      Computing two-electron integrals...done
      Computed 11513448 non-zero two-electron integrals.
        Stored in file 33.

*** tstart() called on c5-1.compute.lan
*** at Wed Mar 10 09:16:31 2021

	Wfn Parameters:
	--------------------
	Wavefunction         = CCSD_T
	Number of irreps     = 4
	Number of MOs        = 138
	Number of active MOs = 136
	AO-Basis             = NONE
	Semicanonical        = false
	Reference            = UHF
	Print Level          = 1

	IRREP	# MOs	# FZDC	# DOCC	# SOCC	# VIRT	# FZVR
	-----	-----	------	------	------	------	------
	 A1	   54	    2	    3	    1	    48	    0
	 A2	   17	    0	    0	    0	    17	    0
	 B1	   29	    0	    1	    1	    27	    0
	 B2	   38	    0	    2	    0	    36	    0
	Transforming integrals...
	IWL integrals will be deleted.
	(OO|OO)...
	Presorting SO-basis two-electron integrals.
	Sorting File: SO Ints (nn|nn) nbuckets = 1
	Transforming the one-electron integrals and constructing Fock matrices
	Starting AA/AB first half-transformation.
	Sorting AA/AB half-transformed integrals.
	Starting BB first half-transformation.
	Sorting BB half-transformed integrals.
	First half integral transformation complete.
	Starting AA second half-transformation.
	Starting AB second half-transformation.
	Starting BB second half-transformation.
	Two-electron integral transformation complete.
	(OO|OV)...
	Starting AA second half-transformation.
	Starting AB second half-transformation.
	Starting BB second half-transformation.
	Two-electron integral transformation complete.
	(OO|VV)...
	Starting AA second half-transformation.
	Starting AB second half-transformation.
	Starting BB second half-transformation.
	Two-electron integral transformation complete.
	(OV|OO)...
	Starting AA/AB first half-transformation.
	Sorting AA/AB half-transformed integrals.
	Starting BB first half-transformation.
	Sorting BB half-transformed integrals.
	First half integral transformation complete.
	Starting AA second half-transformation.
	Starting AB second half-transformation.
	Starting BB second half-transformation.
	Two-electron integral transformation complete.
	(OV|OV)...
	Starting AA second half-transformation.
	Starting AB second half-transformation.
	Starting BB second half-transformation.
	Two-electron integral transformation complete.
	(OV|VV)...
	Starting AA second half-transformation.
	Starting AB second half-transformation.
	Starting BB second half-transformation.
	Two-electron integral transformation complete.
	(VV|OO)...
	Starting AA/AB first half-transformation.
	Sorting AA/AB half-transformed integrals.
	Starting BB first half-transformation.
	Sorting BB half-transformed integrals.
	First half integral transformation complete.
	Starting AA second half-transformation.
	Starting AB second half-transformation.
	Starting BB second half-transformation.
	Two-electron integral transformation complete.
	(VV|OV)...
	Starting AA second half-transformation.
	Starting AB second half-transformation.
	Starting BB second half-transformation.
	Two-electron integral transformation complete.
	(VV|VV)...
	Starting AA second half-transformation.
	Starting AB second half-transformation.
	Starting BB second half-transformation.
	Two-electron integral transformation complete.
	Frozen core energy     =   -127.07482640785354

	Size of irrep 0 of <AB|CD> integrals:      5.040 (MW) /     40.320 (MB)
	Size of irrep 1 of <AB|CD> integrals:      3.197 (MW) /     25.576 (MB)
	Size of irrep 2 of <AB|CD> integrals:      3.640 (MW) /     29.124 (MB)
	Size of irrep 3 of <AB|CD> integrals:      4.783 (MW) /     38.264 (MB)
	Total:                                    16.660 (MW) /    133.283 (MB)

	Size of irrep 0 of <ab|cd> integrals:      5.382 (MW) /     43.059 (MB)
	Size of irrep 1 of <ab|cd> integrals:      3.389 (MW) /     27.114 (MB)
	Size of irrep 2 of <ab|cd> integrals:      3.936 (MW) /     31.490 (MB)
	Size of irrep 3 of <ab|cd> integrals:      5.018 (MW) /     40.141 (MB)
	Total:                                    17.726 (MW) /    141.804 (MB)

	Size of irrep 0 of <Ab|Cd> integrals:     22.024 (MW) /    176.194 (MB)
	Size of irrep 1 of <Ab|Cd> integrals:     13.170 (MW) /    105.357 (MB)
	Size of irrep 2 of <Ab|Cd> integrals:     15.140 (MW) /    121.119 (MB)
	Size of irrep 3 of <Ab|Cd> integrals:     19.598 (MW) /    156.787 (MB)
	Total:                                    69.932 (MW) /    559.457 (MB)

	Size of irrep 0 of <IA|BC> integrals:      1.469 (MW) /     11.748 (MB)
	Size of irrep 1 of <IA|BC> integrals:      0.694 (MW) /      5.550 (MB)
	Size of irrep 2 of <IA|BC> integrals:      0.908 (MW) /      7.266 (MB)
	Size of irrep 3 of <IA|BC> integrals:      1.198 (MW) /      9.588 (MB)
	Total:                                     4.269 (MW) /     34.152 (MB)

	Size of irrep 0 of <ia|bc> integrals:      1.178 (MW) /      9.426 (MB)
	Size of irrep 1 of <ia|bc> integrals:      0.527 (MW) /      4.212 (MB)
	Size of irrep 2 of <ia|bc> integrals:      0.663 (MW) /      5.301 (MB)
	Size of irrep 3 of <ia|bc> integrals:      0.999 (MW) /      7.992 (MB)
	Total:                                     3.366 (MW) /     26.931 (MB)

	Size of irrep 0 of <Ia|Bc> integrals:      1.521 (MW) /     12.164 (MB)
	Size of irrep 1 of <Ia|Bc> integrals:      0.711 (MW) /      5.690 (MB)
	Size of irrep 2 of <Ia|Bc> integrals:      0.949 (MW) /      7.595 (MB)
	Size of irrep 3 of <Ia|Bc> integrals:      1.222 (MW) /      9.775 (MB)
	Total:                                     4.403 (MW) /     35.225 (MB)

	Size of irrep 0 of <iA|bC> integrals:      1.140 (MW) /      9.123 (MB)
	Size of irrep 1 of <iA|bC> integrals:      0.512 (MW) /      4.094 (MB)
	Size of irrep 2 of <iA|bC> integrals:      0.634 (MW) /      5.074 (MB)
	Size of irrep 3 of <iA|bC> integrals:      0.978 (MW) /      7.827 (MB)
	Total:                                     3.265 (MW) /     26.118 (MB)

	Size of irrep 0 of tIjAb amplitudes:       0.084 (MW) /      0.676 (MB)
	Size of irrep 1 of tIjAb amplitudes:       0.022 (MW) /      0.174 (MB)
	Size of irrep 2 of tIjAb amplitudes:       0.039 (MW) /      0.311 (MB)
	Size of irrep 3 of tIjAb amplitudes:       0.062 (MW) /      0.496 (MB)
	Total:                                     0.207 (MW) /      1.657 (MB)

	Nuclear Rep. energy          =     26.06129404441335
	SCF energy                   =   -150.86758303784561
	One-electron energy          =    -88.16504527854644
	Two-electron (AA) energy     =     10.77846668656006
	Two-electron (BB) energy     =      5.66173988334973
	Two-electron (AB) energy     =     21.87078803422920
	Two-electron energy          =     38.31099460413899
	Reference energy             =   -150.86758303784765

*** tstop() called on c5-1.compute.lan at Wed Mar 10 09:16:50 2021
Module time:
	user time   =      51.37 seconds =       0.86 minutes
	system time =       9.70 seconds =       0.16 minutes
	total time  =         19 seconds =       0.32 minutes
Total time:
	user time   =     102.74 seconds =       1.71 minutes
	system time =      10.76 seconds =       0.18 minutes
	total time  =         26 seconds =       0.43 minutes
            **************************
            *                        *
            *        CCENERGY        *
            *                        *
            **************************

    Nuclear Rep. energy (wfn)     =   26.061294044413351
    SCF energy          (wfn)     = -150.867583037845606
    Reference energy    (file100) = -150.867583037847652

    Input parameters:
    -----------------
    Wave function   =     CCSD_T
    Reference wfn   =     UHF
    Brueckner       =     No
    Memory (Mbytes) =     4000.0
    Maxiter         =     50
    R_Convergence   =     1.0e-10
    E_Convergence   =     1.0e-10
    Restart         =     Yes
    DIIS            =     Yes
    AO Basis        =     NONE
    ABCD            =     NEW
    Cache Level     =     2
    Cache Type      =     LRU
    Print Level     =     1
    Num. of threads =     12
    # Amps to Print =     10
    Print MP2 Amps? =     No
    Analyze T2 Amps =     No
    Print Pair Ener =     No
    Local CC        =     No
    SCS-MP2         =     False
    SCSN-MP2        =     False
    SCS-CCSD        =     False

MP2 correlation energy -0.4185325315350762
                Solving CC Amplitude Equations
                ------------------------------
  Iter             Energy              RMS        T1Diag      D1Diag    New D1Diag    D2Diag
  ----     ---------------------    ---------   ----------  ----------  ----------   --------
     0        -0.418532531535076    0.000e+00    0.000000    0.000000    0.000000    0.000000
     1        -0.429117758585030    6.041e-02    0.011844    0.000000    0.000000    0.000000
     2        -0.437424665839232    1.830e-02    0.012517    0.000000    0.000000    0.000000
     3        -0.439721183266797    1.179e-02    0.015206    0.000000    0.000000    0.000000
     4        -0.439661398925031    4.362e-03    0.016328    0.000000    0.000000    0.000000
     5        -0.439623518305458    2.985e-03    0.017090    0.000000    0.000000    0.000000
     6        -0.439689278649196    1.162e-03    0.017452    0.000000    0.000000    0.000000
     7        -0.439698936379743    5.466e-04    0.017548    0.000000    0.000000    0.000000
     8        -0.439698115726509    2.015e-04    0.017590    0.000000    0.000000    0.000000
     9        -0.439701405210896    1.065e-04    0.017596    0.000000    0.000000    0.000000
    10        -0.439696428700674    5.577e-05    0.017609    0.000000    0.000000    0.000000
    11        -0.439696918233435    2.609e-05    0.017609    0.000000    0.000000    0.000000
    12        -0.439696737360153    1.024e-05    0.017611    0.000000    0.000000    0.000000
    13        -0.439696896777947    5.271e-06    0.017610    0.000000    0.000000    0.000000
    14        -0.439697086600409    2.152e-06    0.017610    0.000000    0.000000    0.000000
    15        -0.439697092278730    9.752e-07    0.017610    0.000000    0.000000    0.000000
    16        -0.439697096137945    4.269e-07    0.017610    0.000000    0.000000    0.000000
    17        -0.439697097640346    1.448e-07    0.017610    0.000000    0.000000    0.000000
    18        -0.439697095371752    7.341e-08    0.017610    0.000000    0.000000    0.000000

      * MP2 total energy                      = -151.286115569382730
      * CCSD total energy                     = -151.307280133077654
      * CCSD(T) total energy                     = -151.320057445917115
*** Psi4 exiting successfully. Buy a developer a beer!
