                               Psi4 1.3.2 release

  ==> Input File <==

--------------------------------------------------------------------------
memory 4 GB

molecule  {
0 3
O   -1.504744251557   -0.001191842846    0.000000000000
H   -0.556510398251    0.156670023751    0.000000000000
H   -1.893945885970    0.877277752842    0.000000000000
O    1.659145274779   -0.063956266791    0.000000000000
}
set {
basis aug-cc-pvtz
reference uhf
e_convergence 10
scf_type pk
freeze_core true
}

set ccenergy {
e_convergence 10
r_convergence 10
}

e = energy('ccsd(t)')

print_out('Stephenergy {}'.format(e))

--------------------------------------------------------------------------

    Molecular point group: cs

    Geometry (in Angstrom), charge = 0, multiplicity = 3:

       Center              X                  Y                   Z               Mass
    ------------   -----------------  -----------------  -----------------  -----------------
         O           -1.504744251557    -0.001191842846     0.000000000000    15.994914619570
         H           -0.556510398251     0.156670023751     0.000000000000     1.007825032230
         H           -1.893945885970     0.877277752842     0.000000000000     1.007825032230
         O            1.659145274779    -0.063956266791     0.000000000000    15.994914619570

  Charge       = 0
  Multiplicity = 3
  Basis Set: AUG-CC-PVTZ
    Blend: AUG-CC-PVTZ

    Orbital Energies [Eh]
    ---------------------

    Alpha Occupied:

       1Ap   -20.732949     2Ap   -20.558665     3Ap    -1.442276
       4Ap    -1.343565     5Ap    -0.733066     1App   -0.732678
       6Ap    -0.710654     7Ap    -0.634377     8Ap    -0.575352
       2App   -0.502058

    Alpha Virtual:

       9Ap     0.034203    10Ap     0.053490    11Ap     0.128187
       3App    0.132940    12Ap     0.148145    13Ap     0.160790
      14Ap     0.183930     4App    0.186769    15Ap     0.214105
      16Ap     0.242037    17Ap     0.264345     5App    0.286424
      18Ap     0.303874     6App    0.320615    19Ap     0.364589
      20Ap     0.406365    21Ap     0.460542    22Ap     0.568491
       7App    0.602714    23Ap     0.608793    24Ap     0.627157
      25Ap     0.682317     8App    0.709390    26Ap     0.714649
       9App    0.736623    10App    0.748642    27Ap     0.750804
      28Ap     0.811604    11App    0.826062    29Ap     0.837409
      12App    0.890957    30Ap     0.891893    31Ap     0.922756
      32Ap     0.945148    13App    0.947367    33Ap     0.951451
      14App    0.971740    34Ap     0.978806    35Ap     1.043411
      36Ap     1.135908    15App    1.153878    37Ap     1.170165
      38Ap     1.185196    39Ap     1.260701    16App    1.294732
      40Ap     1.316287    17App    1.527569    41Ap     1.586489
      18App    1.598379    42Ap     1.715364    43Ap     1.809943
      44Ap     1.842954    45Ap     1.977680    19App    1.977819
      46Ap     1.979158    20App    2.013285    47Ap     2.018127
      21App    2.048362    48Ap     2.060841    22App    2.122238
      49Ap     2.152787    50Ap     2.175922    23App    2.212228
      24App    2.302857    51Ap     2.311172    52Ap     2.338368
      53Ap     2.414713    25App    2.441540    54Ap     2.458577
      55Ap     2.490593    26App    2.526493    56Ap     2.629448
      57Ap     2.710666    27App    2.727045    58Ap     2.734832
      59Ap     2.860665    60Ap     2.933219    28App    2.943561
      61Ap     3.696932    62Ap     3.891883    29App    4.036974
      30App    4.063234    63Ap     4.074137    31App    4.178592
      64Ap     4.209105    65Ap     4.266830    32App    4.301928
      33App    4.391601    66Ap     4.406831    34App    4.430885
      67Ap     4.445858    68Ap     4.603246    69Ap     4.780495
      70Ap     4.960799    35App    5.158209    71Ap     5.175140
      72Ap     5.298973    73Ap     5.394465    36App    5.529097
      74Ap     5.692191    75Ap     6.191077    37App    6.312475
      76Ap     6.312507    38App    6.375488    77Ap     6.378167
      39App    6.517556    78Ap     6.518871    79Ap     6.558973
      80Ap     6.636668    40App    6.736059    81Ap     6.814599
      41App    6.820148    82Ap     6.923856    42App    6.936929
      83Ap     6.961843    84Ap     7.050966    43App    7.149321
      44App    7.272754    85Ap     7.326890    45App    7.328525
      86Ap     7.365110    46App    7.434726    87Ap     7.649403
      88Ap     7.946829    89Ap     7.964629    90Ap     8.816196
      91Ap     9.512749    92Ap    16.338540

    Beta Occupied:

       1Ap   -20.654166     2Ap   -20.558793     3Ap    -1.344132
       4Ap    -1.099810     5Ap    -0.709901     6Ap    -0.580228
       7Ap    -0.541200     1App   -0.502100

    Beta Virtual:

       8Ap     0.034362     2App    0.049440     9Ap     0.049684
      10Ap     0.055198    11Ap     0.143797    12Ap     0.152994
       3App    0.161190    13Ap     0.178092    14Ap     0.207821
      15Ap     0.225472     4App    0.227239    16Ap     0.250777
      17Ap     0.265608     5App    0.286631    18Ap     0.306004
       6App    0.324326    19Ap     0.368484    20Ap     0.417255
      21Ap     0.461813    22Ap     0.572064    23Ap     0.627925
       7App    0.635115    24Ap     0.640516    25Ap     0.687121
      26Ap     0.715308     8App    0.721498     9App    0.739772
      10App    0.750272    27Ap     0.767344    28Ap     0.817983
      29Ap     0.868301    11App    0.869108    30Ap     0.920008
      12App    0.941787    31Ap     0.941826    13App    0.949545
      32Ap     0.952834    33Ap     0.969977    34Ap     1.017718
      14App    1.020212    35Ap     1.045639    15App    1.157030
      36Ap     1.163527    37Ap     1.173356    38Ap     1.216678
      39Ap     1.263793    16App    1.305320    40Ap     1.325036
      17App    1.528276    41Ap     1.588735    18App    1.599813
      42Ap     1.741668    43Ap     1.815473    44Ap     1.853499
      45Ap     1.987108    46Ap     2.015781    19App    2.015793
      20App    2.053680    47Ap     2.065554    21App    2.170207
      48Ap     2.176189    22App    2.179673    49Ap     2.193906
      50Ap     2.244532    23App    2.249725    24App    2.306242
      51Ap     2.316651    52Ap     2.361108    53Ap     2.419289
      25App    2.444244    54Ap     2.459356    55Ap     2.496882
      26App    2.534924    56Ap     2.636587    57Ap     2.727663
      27App    2.728363    58Ap     2.738153    59Ap     2.862485
      60Ap     2.937708    28App    2.944185    61Ap     3.697605
      62Ap     3.894219    29App    4.040089    30App    4.147341
      63Ap     4.193445    64Ap     4.244816    31App    4.262663
      65Ap     4.277418    32App    4.301990    33App    4.391670
      66Ap     4.410485    34App    4.431552    67Ap     4.490304
      68Ap     4.605761    69Ap     4.782153    70Ap     4.962743
      35App    5.158195    71Ap     5.175421    72Ap     5.299212
      73Ap     5.395690    36App    5.529156    74Ap     5.692543
      75Ap     6.192315    76Ap     6.421324    37App    6.421329
      38App    6.450680    77Ap     6.453374    78Ap     6.533884
      39App    6.571466    79Ap     6.599865    80Ap     6.681677
      40App    6.741997    81Ap     6.926144    41App    7.005215
      82Ap     7.006942    42App    7.046246    83Ap     7.068309
      84Ap     7.130687    43App    7.151769    44App    7.272996
      85Ap     7.327202    45App    7.329238    86Ap     7.365911
      46App    7.435132    87Ap     7.650248    88Ap     7.947918
      89Ap     7.964924    90Ap     8.817745    91Ap     9.587734
      92Ap    16.338809

    Final Occupation by Irrep:
             Ap   App
    DOCC [     7,    1 ]
    SOCC [     1,    1 ]

  @UHF Final Energy:  -150.87455051360544

   => Energetics <=

    Nuclear Repulsion Energy =             22.9135205011583594
    One-Electron Energy =                -253.6201701088699565
    Two-Electron Energy =                  79.8320990941061552
    Total Energy =                       -150.8745505136054419

  UHF NO Occupations:
  HONO-2 :    7 Ap 1.9970286
  HONO-1 :    8 Ap 1.0000000
  HONO-0 :    2App 1.0000000
  LUNO+0 :    9 Ap 0.0029714
  LUNO+1 :   10 Ap 0.0017156
  LUNO+2 :   11 Ap 0.0000024
  LUNO+3 :   12 Ap 0.0000017

Computation Completed

Properties will be evaluated at   0.000000,   0.000000,   0.000000 [a0]

Properties computed using the SCF density matrix

  Nuclear Dipole Moment: [e a0]
     X:    -2.2965      Y:     0.9690      Z:     0.0000

  Electronic Dipole Moment: [e a0]
     X:     2.7582      Y:    -0.2936      Z:     0.0000

  Dipole Moment: [e a0]
     X:     0.4617      Y:     0.6754      Z:     0.0000     Total:     0.8181

  Dipole Moment: [D]
     X:     1.1736      Y:     1.7166      Z:     0.0000     Total:     2.0794

*** tstop() called on c2-9.compute.lan at Wed Mar 10 10:57:19 2021
Module time:
	user time   =      67.82 seconds =       1.13 minutes
	system time =       3.33 seconds =       0.06 minutes
	total time  =          7 seconds =       0.12 minutes
Total time:
	user time   =      67.82 seconds =       1.13 minutes
	system time =       3.33 seconds =       0.06 minutes
	total time  =          7 seconds =       0.12 minutes
 MINTS: Wrapper to libmints.
   by Justin Turney

   Calculation information:
      Number of threads:                12
      Number of atoms:                   4
      Number of AO shells:              46
      Number of SO shells:              46
      Number of primitives:             82
      Number of atomic orbitals:       160
      Number of basis functions:       138

      Number of irreps:                  2
      Integral cutoff                 0.00e+00
      Number of functions per irrep: [  92   46 ]

 OEINTS: Overlap, kinetic, potential, dipole, and quadrupole integrals
         stored in file 35.

      Computing two-electron integrals...done
      Computed 22935896 non-zero two-electron integrals.
        Stored in file 33.

*** tstart() called on c2-9.compute.lan
*** at Wed Mar 10 10:57:23 2021

	Wfn Parameters:
	--------------------
	Wavefunction         = CCSD_T
	Number of irreps     = 2
	Number of MOs        = 138
	Number of active MOs = 136
	AO-Basis             = NONE
	Semicanonical        = false
	Reference            = UHF
	Print Level          = 1

	IRREP	# MOs	# FZDC	# DOCC	# SOCC	# VIRT	# FZVR
	-----	-----	------	------	------	------	------
	 Ap	   92	    2	    5	    1	    84	    0
	 App	   46	    0	    1	    1	    44	    0
	Transforming integrals...
	IWL integrals will be deleted.
	(OO|OO)...
	Presorting SO-basis two-electron integrals.
	Sorting File: SO Ints (nn|nn) nbuckets = 1
	Transforming the one-electron integrals and constructing Fock matrices
	Starting AA/AB first half-transformation.
	Sorting AA/AB half-transformed integrals.
	Starting BB first half-transformation.
	Sorting BB half-transformed integrals.
	First half integral transformation complete.
	Starting AA second half-transformation.
	Starting AB second half-transformation.
	Starting BB second half-transformation.
	Two-electron integral transformation complete.
	(OO|OV)...
	Starting AA second half-transformation.
	Starting AB second half-transformation.
	Starting BB second half-transformation.
	Two-electron integral transformation complete.
	(OO|VV)...
	Starting AA second half-transformation.
	Starting AB second half-transformation.
	Starting BB second half-transformation.
	Two-electron integral transformation complete.
	(OV|OO)...
	Starting AA/AB first half-transformation.
	Sorting AA/AB half-transformed integrals.
	Starting BB first half-transformation.
	Sorting BB half-transformed integrals.
	First half integral transformation complete.
	Starting AA second half-transformation.
	Starting AB second half-transformation.
	Starting BB second half-transformation.
	Two-electron integral transformation complete.
	(OV|OV)...
	Starting AA second half-transformation.
	Starting AB second half-transformation.
	Starting BB second half-transformation.
	Two-electron integral transformation complete.
	(OV|VV)...
	Starting AA second half-transformation.
	Starting AB second half-transformation.
	Starting BB second half-transformation.
	Two-electron integral transformation complete.
	(VV|OO)...
	Starting AA/AB first half-transformation.
	Sorting AA/AB half-transformed integrals.
	Starting BB first half-transformation.
	Sorting BB half-transformed integrals.
	First half integral transformation complete.
	Starting AA second half-transformation.
	Starting AB second half-transformation.
	Starting BB second half-transformation.
	Two-electron integral transformation complete.
	(VV|OV)...
	Starting AA second half-transformation.
	Starting AB second half-transformation.
	Starting BB second half-transformation.
	Two-electron integral transformation complete.
	(VV|VV)...
	Starting AA second half-transformation.
	Starting AB second half-transformation.
	Starting BB second half-transformation.
	Two-electron integral transformation complete.
	Frozen core energy     =   -125.85892173663701

	Size of irrep 0 of <AB|CD> integrals:     19.643 (MW) /    157.141 (MB)
	Size of irrep 1 of <AB|CD> integrals:     13.660 (MW) /    109.283 (MB)
	Total:                                    33.303 (MW) /    266.424 (MB)

	Size of irrep 0 of <ab|cd> integrals:     20.794 (MW) /    166.349 (MB)
	Size of irrep 1 of <ab|cd> integrals:     14.631 (MW) /    117.045 (MB)
	Total:                                    35.424 (MW) /    283.394 (MB)

	Size of irrep 0 of <Ab|Cd> integrals:     83.174 (MW) /    665.395 (MB)
	Size of irrep 1 of <Ab|Cd> integrals:     56.550 (MW) /    452.403 (MB)
	Total:                                   139.725 (MW) /   1117.798 (MB)

	Size of irrep 0 of <IA|BC> integrals:      5.323 (MW) /     42.586 (MB)
	Size of irrep 1 of <IA|BC> integrals:      3.193 (MW) /     25.547 (MB)
	Total:                                     8.517 (MW) /     68.133 (MB)

	Size of irrep 0 of <ia|bc> integrals:      4.348 (MW) /     34.780 (MB)
	Size of irrep 1 of <ia|bc> integrals:      2.372 (MW) /     18.972 (MB)
	Total:                                     6.719 (MW) /     53.752 (MB)

	Size of irrep 0 of <Ia|Bc> integrals:      5.472 (MW) /     43.776 (MB)
	Size of irrep 1 of <Ia|Bc> integrals:      3.309 (MW) /     26.470 (MB)
	Total:                                     8.781 (MW) /     70.246 (MB)

	Size of irrep 0 of <iA|bC> integrals:      4.232 (MW) /     33.853 (MB)
	Size of irrep 1 of <iA|bC> integrals:      2.286 (MW) /     18.289 (MB)
	Total:                                     6.518 (MW) /     52.142 (MB)

	Size of irrep 0 of tIjAb amplitudes:       0.292 (MW) /      2.335 (MB)
	Size of irrep 1 of tIjAb amplitudes:       0.120 (MW) /      0.963 (MB)
	Total:                                     0.412 (MW) /      3.297 (MB)

	Nuclear Rep. energy          =     22.91352050115836
	SCF energy                   =   -150.87455051360544
	One-electron energy          =    -84.40690058872673
	Two-electron (AA) energy     =     10.13648876081462
	Two-electron (BB) energy     =      5.39261310555471
	Two-electron (AB) energy     =     20.94864944422856
	Two-electron energy          =     36.47775131059789
	Reference energy             =   -150.87455051360752

*** tstop() called on c2-9.compute.lan at Wed Mar 10 10:58:18 2021
Module time:
	user time   =     161.62 seconds =       2.69 minutes
	system time =      37.51 seconds =       0.63 minutes
	total time  =         55 seconds =       0.92 minutes
Total time:
	user time   =     235.87 seconds =       3.93 minutes
	system time =      41.68 seconds =       0.69 minutes
	total time  =         66 seconds =       1.10 minutes
            **************************
            *                        *
            *        CCENERGY        *
            *                        *
            **************************

    Nuclear Rep. energy (wfn)     =   22.913520501158359
    SCF energy          (wfn)     = -150.874550513605442
    Reference energy    (file100) = -150.874550513607517

    Input parameters:
    -----------------
    Wave function   =     CCSD_T
    Reference wfn   =     UHF
    Brueckner       =     No
    Memory (Mbytes) =     4000.0
    Maxiter         =     50
    R_Convergence   =     1.0e-10
    E_Convergence   =     1.0e-10
    Restart         =     Yes
    DIIS            =     Yes
    AO Basis        =     NONE
    ABCD            =     NEW
    Cache Level     =     2
    Cache Type      =     LRU
    Print Level     =     1
    Num. of threads =     12
    # Amps to Print =     10
    Print MP2 Amps? =     No
    Analyze T2 Amps =     No
    Print Pair Ener =     No
    Local CC        =     No
    SCS-MP2         =     False
    SCSN-MP2        =     False
    SCS-CCSD        =     False

MP2 correlation energy -0.4165337624120479
                Solving CC Amplitude Equations
                ------------------------------
  Iter             Energy              RMS        T1Diag      D1Diag    New D1Diag    D2Diag
  ----     ---------------------    ---------   ----------  ----------  ----------   --------
     0        -0.416533762412048    0.000e+00    0.000000    0.000000    0.000000    0.000000
     1        -0.427275213710268    5.682e-02    0.010540    0.000000    0.000000    0.000000
     2        -0.435355111091591    1.687e-02    0.011021    0.000000    0.000000    0.000000
     3        -0.437472947294452    8.562e-03    0.012889    0.000000    0.000000    0.000000
     4        -0.437347120676419    2.533e-03    0.013255    0.000000    0.000000    0.000000
     5        -0.437332744131302    1.318e-03    0.013411    0.000000    0.000000    0.000000
     6        -0.437359959458942    5.140e-04    0.013433    0.000000    0.000000    0.000000
     7        -0.437364574091726    2.635e-04    0.013427    0.000000    0.000000    0.000000
     8        -0.437365174659967    9.909e-05    0.013423    0.000000    0.000000    0.000000
     9        -0.437366537608417    7.395e-05    0.013424    0.000000    0.000000    0.000000
    10        -0.437364991325331    6.398e-05    0.013425    0.000000    0.000000    0.000000
    11        -0.437365135828509    6.119e-05    0.013426    0.000000    0.000000    0.000000
    12        -0.437364846322603    5.952e-05    0.013428    0.000000    0.000000    0.000000
    13        -0.437364836547654    5.838e-05    0.013432    0.000000    0.000000    0.000000
    14        -0.437366009578503    5.649e-05    0.013450    0.000000    0.000000    0.000000
    15        -0.437366387571984    4.995e-05    0.013523    0.000000    0.000000    0.000000
    16        -0.437366166623833    3.340e-05    0.013663    0.000000    0.000000    0.000000
    17        -0.437365821641104    1.614e-05    0.013732    0.000000    0.000000    0.000000
    18        -0.437365693605088    7.566e-06    0.013750    0.000000    0.000000    0.000000
    19        -0.437365952963324    3.343e-06    0.013754    0.000000    0.000000    0.000000
    20        -0.437366064340260    1.498e-06    0.013755    0.000000    0.000000    0.000000
    21        -0.437366072273959    5.893e-07    0.013755    0.000000    0.000000    0.000000
    22        -0.437366073483316    2.792e-07    0.013755    0.000000    0.000000    0.000000
    23        -0.437366072379370    1.448e-07    0.013755    0.000000    0.000000    0.000000
    24        -0.437366071720834    5.999e-08    0.013755    0.000000    0.000000    0.000000
    25        -0.437366072678034    3.279e-08    0.013755    0.000000    0.000000    0.000000
    26        -0.437366073135384    2.544e-08    0.013755    0.000000    0.000000    0.000000
    27        -0.437366073293893    2.381e-08    0.013755    0.000000    0.000000    0.000000
    28        -0.437366073241604    2.306e-08    0.013755    0.000000    0.000000    0.000000
    29        -0.437366073078169    2.238e-08    0.013755    0.000000    0.000000    0.000000
    30        -0.437366072813730    2.127e-08    0.013756    0.000000    0.000000    0.000000
    31        -0.437366073015807    1.791e-08    0.013756    0.000000    0.000000    0.000000
    32        -0.437366073357495    9.319e-09    0.013756    0.000000    0.000000    0.000000
    33        -0.437366073457254    4.077e-09    0.013756    0.000000    0.000000    0.000000
    34        -0.437366073507415    1.664e-09    0.013756    0.000000    0.000000    0.000000
    35        -0.437366073513900    6.591e-10    0.013756    0.000000    0.000000    0.000000
    36        -0.437366073513523    2.824e-10    0.013756    0.000000    0.000000    0.000000

      * MP2 total energy                      = -151.291084276019575
      * CCSD total energy                     = -151.311916587120237
      * CCSD(T) total energy                     = -151.324260838282953
*** Psi4 exiting successfully. Buy a developer a beer!
