                               Psi4 1.3.2 release

  ==> Input File <==

--------------------------------------------------------------------------
memory 4 GB

molecule  {
0 3
O    0.000000000000    0.000000000000   -1.647451218590
H    0.000000000000   -0.754282819600   -1.049263584772
H   -0.000000000000    0.754282819600   -1.049263584772
O    0.000000000000    0.000000000000    1.779677508169
}
set {
basis aug-cc-pvtz
reference uhf
e_convergence 10
scf_type pk
freeze_core true
}

set ccenergy {
e_convergence 10
r_convergence 10
}

e = energy('ccsd(t)')

print_out('Stephenergy {}'.format(e))

--------------------------------------------------------------------------

    Molecular point group: c2v

    Geometry (in Angstrom), charge = 0, multiplicity = 3:

       Center              X                  Y                   Z               Mass
    ------------   -----------------  -----------------  -----------------  -----------------
         O           -0.000000000000     0.000000000000    -1.647451218590    15.994914619570
         H            0.000000000000    -0.754282819600    -1.049263584772     1.007825032230
         H           -0.000000000000     0.754282819600    -1.049263584772     1.007825032230
         O           -0.000000000000     0.000000000000     1.779677508169    15.994914619570

  Charge       = 0
  Multiplicity = 3
  Basis Set: AUG-CC-PVTZ
    Blend: AUG-CC-PVTZ

    Orbital Energies [Eh]
    ---------------------

    Alpha Occupied:

       1A1   -20.729002     2A1   -20.563279     3A1    -1.437984
       4A1    -1.346560     1B2    -0.729386     1B1    -0.729008
       2B2    -0.707184     5A1    -0.632322     6A1    -0.580305
       2B1    -0.505313

    Alpha Virtual:

       7A1     0.035476     3B2     0.048552     3B1     0.132098
       8A1     0.134722     9A1     0.147983     4B2     0.157990
       4B1     0.181181     5B2     0.185002    10A1     0.189279
      11A1     0.250220     6B2     0.257384     1A2     0.266133
      12A1     0.273503     5B1     0.319550    13A1     0.367459
       7B2     0.382347    14A1     0.454049     8B2     0.471689
       2A2     0.609066     9B2     0.615578    15A1     0.618389
      16A1     0.619591     6B1     0.640592    17A1     0.717585
       3A2     0.731234    10B2     0.735987     7B1     0.741965
      18A1     0.800357    19A1     0.838218     8B1     0.840801
      11B2     0.854089     9B1     0.915408    20A1     0.925203
       4A2     0.934021    12B2     0.941731    21A1     0.958163
      10B1     0.960648    13B2     0.961851    22A1     1.048650
      14B2     1.053755    11B1     1.122856     5A2     1.185695
      23A1     1.186563    15B2     1.255270    24A1     1.262153
      16B2     1.275570    25A1     1.345845     6A2     1.511101
      12B1     1.590649    26A1     1.630694    27A1     1.829498
      17B2     1.830238    18B2     1.971299    13B1     1.978555
      19B2     1.988902    28A1     2.005231     7A2     2.011058
      14B1     2.026054    29A1     2.036149     8A2     2.039781
      20B2     2.081035    30A1     2.086198    15B1     2.119707
      31A1     2.145153    21B2     2.260588    16B1     2.278699
       9A2     2.329001    32A1     2.337496    33A1     2.402261
      34A1     2.487750    22B2     2.492171    17B1     2.505639
      35A1     2.575535    23B2     2.689668    18B1     2.718913
      36A1     2.819751    10A2     2.888274    24B2     2.899695
      25B2     3.665876    37A1     3.750656    11A2     4.031195
      19B1     4.050656    26B2     4.084621    20B1     4.100137
      38A1     4.146226    27B2     4.277090    21B1     4.280381
      39A1     4.365784    12A2     4.382593    40A1     4.404672
      22B1     4.415714    28B2     4.530457    41A1     4.748653
      29B2     4.850415    13A2     5.146397    30B2     5.164889
      31B2     5.247520    42A1     5.364661    23B1     5.525450
      43A1     5.670877    44A1     6.199755    24B1     6.315112
      32B2     6.315950    14A2     6.370019    45A1     6.375203
      25B1     6.401990    33B2     6.450046    46A1     6.480090
      34B2     6.527092    26B1     6.736981    15A2     6.819101
      47A1     6.820530    27B1     6.927399    48A1     6.930400
      35B2     6.956737    49A1     7.033001    28B1     7.134446
      29B1     7.259807    16A2     7.316224    36B2     7.337916
      17A2     7.357428    50A1     7.359062    51A1     7.543513
      52A1     7.895444    37B2     7.935143    53A1     8.530427
      38B2     8.808889    54A1    15.695334

    Beta Occupied:

       1A1   -20.650436     2A1   -20.563317     3A1    -1.346734
       4A1    -1.095682     1B2    -0.707316     5A1    -0.584418
       6A1    -0.538584     1B1    -0.505305

    Beta Virtual:

       2B2     0.035370     7A1     0.036597     2B1     0.049856
       3B2     0.069572     8A1     0.140885     9A1     0.150561
       3B1     0.160485     4B2     0.180914    10A1     0.189596
       5B2     0.221816     4B1     0.225277    11A1     0.259232
       6B2     0.263000     1A2     0.266448    12A1     0.274927
       5B1     0.320193    13A1     0.370848     7B2     0.387404
      14A1     0.455185     8B2     0.472228     9B2     0.618024
      15A1     0.620829     2A2     0.641294    16A1     0.651324
       6B1     0.652710    17A1     0.718903     3A2     0.732660
       7B1     0.743936    10B2     0.747402    18A1     0.808903
      19A1     0.851262     8B1     0.912207    20A1     0.930513
       9B1     0.930516     4A2     0.935417    11B2     0.939871
      12B2     0.944582    21A1     0.959094    13B2     1.009355
      10B1     1.024963    22A1     1.049249    14B2     1.056621
      11B1     1.127916     5A2     1.186402    23A1     1.190618
      15B2     1.268930    16B2     1.278690    24A1     1.280960
      25A1     1.403306     6A2     1.511208    12B1     1.590751
      26A1     1.643381    27A1     1.830632    17B2     1.831486
      18B2     1.977782    13B1     2.016650    19B2     2.021304
      28A1     2.030375     7A2     2.041557    14B1     2.046286
      29A1     2.099824    20B2     2.124840    30A1     2.154835
       8A2     2.182362    15B1     2.189007    31A1     2.195195
      16B1     2.282892    21B2     2.306596     9A2     2.331940
      32A1     2.358629    33A1     2.412865    34A1     2.491979
      22B2     2.496784    17B1     2.510315    35A1     2.578527
      23B2     2.689827    18B1     2.719003    36A1     2.820063
      10A2     2.888297    24B2     2.901735    25B2     3.665916
      37A1     3.750805    11A2     4.031282    19B1     4.099479
      38A1     4.160643    20B1     4.223475    26B2     4.240968
      21B1     4.280401    27B2     4.290955    12A2     4.382641
      39A1     4.389268    40A1     4.414274    22B1     4.415898
      28B2     4.530652    41A1     4.748804    29B2     4.850507
      13A2     5.146414    30B2     5.164893    31B2     5.247543
      42A1     5.365111    23B1     5.525454    43A1     5.671213
      44A1     6.201439    24B1     6.423960    32B2     6.424652
      14A2     6.446680    45A1     6.450255    25B1     6.457274
      33B2     6.494411    46A1     6.528898    34B2     6.539352
      26B1     6.743391    47A1     6.930426    15A2     7.008126
      48A1     7.009914    27B1     7.034838    35B2     7.065740
      49A1     7.113991    28B1     7.134707    29B1     7.259763
      16A2     7.316259    36B2     7.340049    17A2     7.357493
      50A1     7.359732    51A1     7.544221    52A1     7.895676
      37B2     7.935128    53A1     8.615542    38B2     8.808828
      54A1    15.695328

    Final Occupation by Irrep:
             A1    A2    B1    B2
    DOCC [     6,    0,    1,    1 ]
    SOCC [     0,    0,    1,    1 ]

  @UHF Final Energy:  -150.87348417889567

   => Energetics <=

    Nuclear Repulsion Energy =             21.9197990342883067
    One-Electron Energy =                -251.6344313963125501
    Two-Electron Energy =                  78.8411481831285812
    Total Energy =                       -150.8734841788956658

  UHF NO Occupations:
  HONO-2 :    6 A1 1.9970742
  HONO-1 :    2 B1 1.0000000
  HONO-0 :    2 B2 1.0000000
  LUNO+0 :    7 A1 0.0029258
  LUNO+1 :    8 A1 0.0016874
  LUNO+2 :    9 A1 0.0000024
  LUNO+3 :   10 A1 0.0000004

Computation Completed

Properties will be evaluated at   0.000000,   0.000000,   0.000000 [a0]

Properties computed using the SCF density matrix

  Nuclear Dipole Moment: [e a0]
     X:    -0.0000      Y:     0.0000      Z:    -1.9667

  Electronic Dipole Moment: [e a0]
     X:     0.0000      Y:     0.0000      Z:     2.8015

  Dipole Moment: [e a0]
     X:    -0.0000      Y:     0.0000      Z:     0.8348     Total:     0.8348

  Dipole Moment: [D]
     X:    -0.0000      Y:     0.0000      Z:     2.1219     Total:     2.1219

*** tstop() called on c4-4.compute.lan at Wed Mar 10 09:52:05 2021
Module time:
	user time   =      45.56 seconds =       0.76 minutes
	system time =       0.84 seconds =       0.01 minutes
	total time  =          5 seconds =       0.08 minutes
Total time:
	user time   =      45.56 seconds =       0.76 minutes
	system time =       0.84 seconds =       0.01 minutes
	total time  =          5 seconds =       0.08 minutes
 MINTS: Wrapper to libmints.
   by Justin Turney

   Calculation information:
      Number of threads:                12
      Number of atoms:                   4
      Number of AO shells:              46
      Number of SO shells:              37
      Number of primitives:             82
      Number of atomic orbitals:       160
      Number of basis functions:       138

      Number of irreps:                  4
      Integral cutoff                 0.00e+00
      Number of functions per irrep: [  54   17   29   38 ]

 OEINTS: Overlap, kinetic, potential, dipole, and quadrupole integrals
         stored in file 35.

      Computing two-electron integrals...done
      Computed 11524732 non-zero two-electron integrals.
        Stored in file 33.

*** tstart() called on c4-4.compute.lan
*** at Wed Mar 10 09:52:07 2021

	Wfn Parameters:
	--------------------
	Wavefunction         = CCSD_T
	Number of irreps     = 4
	Number of MOs        = 138
	Number of active MOs = 136
	AO-Basis             = NONE
	Semicanonical        = false
	Reference            = UHF
	Print Level          = 1

	IRREP	# MOs	# FZDC	# DOCC	# SOCC	# VIRT	# FZVR
	-----	-----	------	------	------	------	------
	 A1	   54	    2	    4	    0	    48	    0
	 A2	   17	    0	    0	    0	    17	    0
	 B1	   29	    0	    1	    1	    27	    0
	 B2	   38	    0	    1	    1	    36	    0
	Transforming integrals...
	IWL integrals will be deleted.
	(OO|OO)...
	Presorting SO-basis two-electron integrals.
	Sorting File: SO Ints (nn|nn) nbuckets = 1
	Transforming the one-electron integrals and constructing Fock matrices
	Starting AA/AB first half-transformation.
	Sorting AA/AB half-transformed integrals.
	Starting BB first half-transformation.
	Sorting BB half-transformed integrals.
	First half integral transformation complete.
	Starting AA second half-transformation.
	Starting AB second half-transformation.
	Starting BB second half-transformation.
	Two-electron integral transformation complete.
	(OO|OV)...
	Starting AA second half-transformation.
	Starting AB second half-transformation.
	Starting BB second half-transformation.
	Two-electron integral transformation complete.
	(OO|VV)...
	Starting AA second half-transformation.
	Starting AB second half-transformation.
	Starting BB second half-transformation.
	Two-electron integral transformation complete.
	(OV|OO)...
	Starting AA/AB first half-transformation.
	Sorting AA/AB half-transformed integrals.
	Starting BB first half-transformation.
	Sorting BB half-transformed integrals.
	First half integral transformation complete.
	Starting AA second half-transformation.
	Starting AB second half-transformation.
	Starting BB second half-transformation.
	Two-electron integral transformation complete.
	(OV|OV)...
	Starting AA second half-transformation.
	Starting AB second half-transformation.
	Starting BB second half-transformation.
	Two-electron integral transformation complete.
	(OV|VV)...
	Starting AA second half-transformation.
	Starting AB second half-transformation.
	Starting BB second half-transformation.
	Two-electron integral transformation complete.
	(VV|OO)...
	Starting AA/AB first half-transformation.
	Sorting AA/AB half-transformed integrals.
	Starting BB first half-transformation.
	Sorting BB half-transformed integrals.
	First half integral transformation complete.
	Starting AA second half-transformation.
	Starting AB second half-transformation.
	Starting BB second half-transformation.
	Two-electron integral transformation complete.
	(VV|OV)...
	Starting AA second half-transformation.
	Starting AB second half-transformation.
	Starting BB second half-transformation.
	Two-electron integral transformation complete.
	(VV|VV)...
	Starting AA second half-transformation.
	Starting AB second half-transformation.
	Starting BB second half-transformation.
	Two-electron integral transformation complete.
	Frozen core energy     =   -125.45616562118965

	Size of irrep 0 of <AB|CD> integrals:      5.040 (MW) /     40.320 (MB)
	Size of irrep 1 of <AB|CD> integrals:      3.197 (MW) /     25.576 (MB)
	Size of irrep 2 of <AB|CD> integrals:      3.640 (MW) /     29.124 (MB)
	Size of irrep 3 of <AB|CD> integrals:      4.783 (MW) /     38.264 (MB)
	Total:                                    16.660 (MW) /    133.283 (MB)

	Size of irrep 0 of <ab|cd> integrals:      5.327 (MW) /     42.615 (MB)
	Size of irrep 1 of <ab|cd> integrals:      3.430 (MW) /     27.439 (MB)
	Size of irrep 2 of <ab|cd> integrals:      3.893 (MW) /     31.142 (MB)
	Size of irrep 3 of <ab|cd> integrals:      5.072 (MW) /     40.572 (MB)
	Total:                                    17.721 (MW) /    141.768 (MB)

	Size of irrep 0 of <Ab|Cd> integrals:     21.912 (MW) /    175.294 (MB)
	Size of irrep 1 of <Ab|Cd> integrals:     13.242 (MW) /    105.939 (MB)
	Size of irrep 2 of <Ab|Cd> integrals:     15.062 (MW) /    120.497 (MB)
	Size of irrep 3 of <Ab|Cd> integrals:     19.705 (MW) /    157.638 (MB)
	Total:                                    69.921 (MW) /    559.368 (MB)

	Size of irrep 0 of <IA|BC> integrals:      1.469 (MW) /     11.748 (MB)
	Size of irrep 1 of <IA|BC> integrals:      0.694 (MW) /      5.550 (MB)
	Size of irrep 2 of <IA|BC> integrals:      0.908 (MW) /      7.266 (MB)
	Size of irrep 3 of <IA|BC> integrals:      1.198 (MW) /      9.588 (MB)
	Total:                                     4.269 (MW) /     34.152 (MB)

	Size of irrep 0 of <ia|bc> integrals:      1.220 (MW) /      9.758 (MB)
	Size of irrep 1 of <ia|bc> integrals:      0.493 (MW) /      3.941 (MB)
	Size of irrep 2 of <ia|bc> integrals:      0.698 (MW) /      5.588 (MB)
	Size of irrep 3 of <ia|bc> integrals:      0.959 (MW) /      7.675 (MB)
	Total:                                     3.370 (MW) /     26.961 (MB)

	Size of irrep 0 of <Ia|Bc> integrals:      1.507 (MW) /     12.058 (MB)
	Size of irrep 1 of <Ia|Bc> integrals:      0.721 (MW) /      5.764 (MB)
	Size of irrep 2 of <Ia|Bc> integrals:      0.939 (MW) /      7.514 (MB)
	Size of irrep 3 of <Ia|Bc> integrals:      1.234 (MW) /      9.872 (MB)
	Total:                                     4.401 (MW) /     35.208 (MB)

	Size of irrep 0 of <iA|bC> integrals:      1.194 (MW) /      9.549 (MB)
	Size of irrep 1 of <iA|bC> integrals:      0.477 (MW) /      3.814 (MB)
	Size of irrep 2 of <iA|bC> integrals:      0.671 (MW) /      5.371 (MB)
	Size of irrep 3 of <iA|bC> integrals:      0.928 (MW) /      7.422 (MB)
	Total:                                     3.270 (MW) /     26.156 (MB)

	Size of irrep 0 of tIjAb amplitudes:       0.094 (MW) /      0.749 (MB)
	Size of irrep 1 of tIjAb amplitudes:       0.015 (MW) /      0.116 (MB)
	Size of irrep 2 of tIjAb amplitudes:       0.047 (MW) /      0.373 (MB)
	Size of irrep 3 of tIjAb amplitudes:       0.053 (MW) /      0.426 (MB)
	Total:                                     0.208 (MW) /      1.664 (MB)

	Nuclear Rep. energy          =     21.91979903428831
	SCF energy                   =   -150.87348417889567
	One-electron energy          =    -83.22813464815337
	Two-electron (AA) energy     =      9.94462618096707
	Two-electron (BB) energy     =      5.29167985320707
	Two-electron (AB) energy     =     20.65471102198337
	Two-electron energy          =     35.89101705615752
	Reference energy             =   -150.87348417889720

*** tstop() called on c4-4.compute.lan at Wed Mar 10 09:52:26 2021
Module time:
	user time   =      49.17 seconds =       0.82 minutes
	system time =       9.80 seconds =       0.16 minutes
	total time  =         19 seconds =       0.32 minutes
Total time:
	user time   =     100.70 seconds =       1.68 minutes
	system time =      10.98 seconds =       0.18 minutes
	total time  =         26 seconds =       0.43 minutes
            **************************
            *                        *
            *        CCENERGY        *
            *                        *
            **************************

    Nuclear Rep. energy (wfn)     =   21.919799034288307
    SCF energy          (wfn)     = -150.873484178895666
    Reference energy    (file100) = -150.873484178897201

    Input parameters:
    -----------------
    Wave function   =     CCSD_T
    Reference wfn   =     UHF
    Brueckner       =     No
    Memory (Mbytes) =     4000.0
    Maxiter         =     50
    R_Convergence   =     1.0e-10
    E_Convergence   =     1.0e-10
    Restart         =     Yes
    DIIS            =     Yes
    AO Basis        =     NONE
    ABCD            =     NEW
    Cache Level     =     2
    Cache Type      =     LRU
    Print Level     =     1
    Num. of threads =     12
    # Amps to Print =     10
    Print MP2 Amps? =     No
    Analyze T2 Amps =     No
    Print Pair Ener =     No
    Local CC        =     No
    SCS-MP2         =     False
    SCSN-MP2        =     False
    SCS-CCSD        =     False

MP2 correlation energy -0.4158302236518517
                Solving CC Amplitude Equations
                ------------------------------
  Iter             Energy              RMS        T1Diag      D1Diag    New D1Diag    D2Diag
  ----     ---------------------    ---------   ----------  ----------  ----------   --------
     0        -0.415830223651852    0.000e+00    0.000000    0.000000    0.000000    0.000000
     1        -0.426655476566146    5.647e-02    0.010378    0.000000    0.000000    0.000000
     2        -0.434758009796738    1.682e-02    0.010877    0.000000    0.000000    0.000000
     3        -0.436862046153520    8.424e-03    0.012697    0.000000    0.000000    0.000000
     4        -0.436738046799844    2.494e-03    0.013042    0.000000    0.000000    0.000000
     5        -0.436725964836331    1.260e-03    0.013184    0.000000    0.000000    0.000000
     6        -0.436751391435284    4.989e-04    0.013198    0.000000    0.000000    0.000000
     7        -0.436755527788833    2.251e-04    0.013188    0.000000    0.000000    0.000000
     8        -0.436756283260240    6.837e-05    0.013182    0.000000    0.000000    0.000000
     9        -0.436757503545642    2.796e-05    0.013182    0.000000    0.000000    0.000000
    10        -0.436756327736887    1.059e-05    0.013181    0.000000    0.000000    0.000000
    11        -0.436756438609660    5.235e-06    0.013181    0.000000    0.000000    0.000000
    12        -0.436756398963356    2.550e-06    0.013182    0.000000    0.000000    0.000000
    13        -0.436756392572818    1.368e-06    0.013182    0.000000    0.000000    0.000000
    14        -0.436756419584079    6.412e-07    0.013182    0.000000    0.000000    0.000000
    15        -0.436756418155683    1.729e-07    0.013182    0.000000    0.000000    0.000000
    16        -0.436756418026292    1.056e-07    0.013182    0.000000    0.000000    0.000000
    17        -0.436756418832641    2.991e-08    0.013182    0.000000    0.000000    0.000000
    18        -0.436756418413628    1.375e-08    0.013182    0.000000    0.000000    0.000000

      * MP2 total energy                      = -151.289314402549053
      * CCSD total energy                     = -151.310240597039751
      * CCSD(T) total energy                     = -151.322472040297981
*** Psi4 exiting successfully. Buy a developer a beer!
