                               Psi4 1.4a2.dev191

  ==> Input File <==

--------------------------------------------------------------------------
memory 10 GB

molecule {
0 2
O
H 1 R1
R1 = 0.96
}

set {
basis aug-cc-pvdz
e_convergence 10
reference uhf
scf_type pk
g_convergence gau_verytight
}

optimize("scf")

--------------------------------------------------------------------------

    Molecular point group: c2v
  Charge       = 0
  Multiplicity = 2
  Basis Set: AUG-CC-PVDZ
    Blend: AUG-CC-PVDZ
  @UHF Final Energy:   -75.40385034841955
    Total Energy =                        -75.4038503484195388
    Molecular point group: c2v
  Basis Set: AUG-CC-PVDZ
    Blend: AUG-CC-PVDZ
  Basis Set: AUG-CC-PVDZ
    Blend: AUG-CC-PVDZ
  @UHF Final Energy:   -75.40387673526925
    Total Energy =                        -75.4038767352692503
  Basis Set: AUG-CC-PVDZ
    Blend: AUG-CC-PVDZ
  Basis Set: AUG-CC-PVDZ
    Blend: AUG-CC-PVDZ
  @UHF Final Energy:   -75.40387676887951
    Total Energy =                        -75.4038767688795133
  Basis Set: AUG-CC-PVDZ
    Blend: AUG-CC-PVDZ
  Charge       = 0
  Multiplicity = 2
  Basis Set: AUG-CC-PVDZ
    Blend: AUG-CC-PVDZ

    Orbital Energies [Eh]
    ---------------------

    Alpha Occupied:

       1A1   -20.650237     2A1    -1.397483     3A1    -0.688551
       1B1    -0.657723     1B2    -0.562244

    Alpha Virtual:

       4A1     0.035945     5A1     0.178046     2B1     0.184826
       2B2     0.197661     6A1     0.226974     7A1     0.319486
       3B1     0.388131     3B2     0.398630     8A1     0.629473
       9A1     0.846374     1A2     0.955863    10A1     0.957735
       4B1     1.086334     4B2     1.116905    11A1     1.318245
       5B1     1.331347     5B2     1.390175    12A1     1.669331
       6B1     2.021865     6B2     2.040112    13A1     2.524488
      14A1     2.762948     2A2     3.483552    15A1     3.483593
       7B1     3.595080     7B2     3.655282    16A1     4.123043

    Beta Occupied:

       1A1   -20.609492     2A1    -1.240646     3A1    -0.643933
       1B2    -0.512732

    Beta Virtual:

       4A1     0.037354     1B1     0.064023     5A1     0.181203
       2B2     0.201070     6A1     0.233872     2B1     0.256789
       7A1     0.324530     3B2     0.398366     3B1     0.411953
       8A1     0.644144     9A1     0.857672     1A2     0.994575
      10A1     0.995703     4B2     1.119197     4B1     1.132455
      11A1     1.333313     5B2     1.413281     5B1     1.501076
      12A1     1.691974     6B1     2.030682     6B2     2.037095
      13A1     2.557606    14A1     2.778545     2A2     3.583770
      15A1     3.584504     7B2     3.673684     7B1     3.691379
      16A1     4.156330

    Final Occupation by Irrep:
             A1    A2    B1    B2
    DOCC [     3,    0,    0,    1 ]
    SOCC [     0,    0,    1,    0 ]

  @UHF Final Energy:   -75.40387676888987

   => Energetics <=

    Nuclear Repulsion Energy =              4.4331796231062244
    One-Electron Energy =                -112.7110719985765286
    Two-Electron Energy =                  32.8740156065804285
    Total Energy =                        -75.4038767688898730

  UHF NO Occupations:
  HONO-2 :    2 A1 1.9993242
  HONO-1 :    3 A1 1.9980416
  HONO-0 :    1 B1 1.0000000
  LUNO+0 :    4 A1 0.0019584
  LUNO+1 :    5 A1 0.0006758
  LUNO+2 :    2 B2 0.0005507
  LUNO+3 :    6 A1 0.0000004

Computation Completed

Properties will be evaluated at   0.000000,   0.000000,   0.000000 [a0]

Properties computed using the SCF density matrix

  Nuclear Dipole Moment: [e a0]
     X:     0.0000      Y:     0.0000      Z:     0.8419

  Electronic Dipole Moment: [e a0]
     X:     0.0000      Y:     0.0000      Z:    -0.1498

  Dipole Moment: [e a0]
     X:     0.0000      Y:     0.0000      Z:     0.6921     Total:     0.6921

  Dipole Moment: [D]
     X:     0.0000      Y:     0.0000      Z:     1.7590     Total:     1.7590

*** tstop() called on c5-13.compute.lan at Tue Feb 23 13:21:05 2021
Module time:
	user time   =       0.29 seconds =       0.00 minutes
	system time =       0.01 seconds =       0.00 minutes
	total time  =          1 seconds =       0.02 minutes
Total time:
	user time   =       2.11 seconds =       0.04 minutes
	system time =       0.08 seconds =       0.00 minutes
	total time  =          3 seconds =       0.05 minutes

*** tstart() called on c5-13.compute.lan
*** at Tue Feb 23 13:21:05 2021

         ------------------------------------------------------------
                                   SCF GRAD
                          Rob Parrish, Justin Turney,
                       Andy Simmonett, and Alex Sokolov
         ------------------------------------------------------------

  ==> Geometry <==

    Molecular point group: c2v
    Full point group: C_inf_v

    Geometry (in Angstrom), charge = 0, multiplicity = 2:

       Center              X                  Y                   Z               Mass
    ------------   -----------------  -----------------  -----------------  -----------------
         O            0.000000000000     0.000000000000    -0.056603335986    15.994914619570
         H            0.000000000000     0.000000000000     0.898336017992     1.007825032230

  Nuclear repulsion =    4.433179623106224

  ==> Basis Set <==

  Basis Set: AUG-CC-PVDZ
    Blend: AUG-CC-PVDZ
    Number of shells: 14
    Number of basis function: 32
    Number of Cartesian functions: 34
    Spherical Harmonics?: true
    Max angular momentum: 2

  ==> DirectJKGrad: Integral-Direct SCF Gradients <==

    Gradient:                    1
    J tasked:                  Yes
    K tasked:                  Yes
    wK tasked:                  No
    Integrals threads:           1
    Schwarz Cutoff:          0E+00

  -Total Gradient:
     Atom            X                  Y                   Z
    ------   -----------------  -----------------  -----------------
       1        0.000000000000     0.000000000000     0.000000068825
       2        0.000000000000     0.000000000000    -0.000000068825

*** tstop() called on c5-13.compute.lan at Tue Feb 23 13:21:05 2021
Module time:
	user time   =       0.19 seconds =       0.00 minutes
	system time =       0.01 seconds =       0.00 minutes
	total time  =          0 seconds =       0.00 minutes
Total time:
	user time   =       2.30 seconds =       0.04 minutes
	system time =       0.09 seconds =       0.00 minutes
	total time  =          3 seconds =       0.05 minutes

			-----------------------------------------
			 OPTKING 2.0: for geometry optimizations
			  - R.A. King,  Bethel University
			-----------------------------------------

	Previous internal coordinate definitions found.
	---Fragment 1 Geometry and Gradient---
	 O           0.0000000000        0.0000000000       -0.1069648028
	 H           0.0000000000        0.0000000000        1.6976090426
	             0.0000000000        0.0000000000        0.0000000688
	             0.0000000000        0.0000000000       -0.0000000688

	---Fragment 1 Intrafragment Coordinates---
	 - Coordinate -           - BOHR/RAD -       - ANG/DEG -
	 R(1,2)           =         1.804574	       0.954939

	Current energy   :       -75.4038767689

	Energy change for the previous step:
		Projected    :        -0.0000000000
		Actual       :        -0.0000000000

	Performing BFGS update.
	Previous computed or guess Hessian on step 1.
	Denominators (dg)(dq) or (dq)(dq) are very small.
	 Skipping Hessian update for step 3.
	Denominators (dg)(dq) or (dq)(dq) are very small.
	 Skipping Hessian update for step 2.
	Steps to be used in Hessian update: 1
	Taking RFO optimization step.
	Going to follow RFO solution 1.
	Using RFO vector 1.
	Norm of target step-size    0.00000
	Projected energy change by RFO approximation:        -0.0000000000

	Back-transformation to cartesian coordinates...
	Successfully converged to displaced geometry.

	--- Internal Coordinate Step in ANG or DEG, aJ/ANG or AJ/DEG ---
	 ---------------------------------------------------------------------------
	   Coordinate                Previous        Force       Change         New
	   ----------                --------       ------       ------       ------
	    1 R(1,2)          =      0.954939     0.000001     0.000000     0.954939
	 ---------------------------------------------------------------------------
	Successfully symmetrized geometry.

  ==> Convergence Check <==

  Measures of convergence in internal coordinates in au.
  Criteria marked as inactive (o), active & met (*), and active & unmet ( ).
  ---------------------------------------------------------------------------------------------
   Step     Total Energy     Delta E     MAX Force     RMS Force      MAX Disp      RMS Disp
  ---------------------------------------------------------------------------------------------
    Convergence Criteria             o    2.00e-06 *    1.00e-06 *    6.00e-06 *    4.00e-06 *
  ---------------------------------------------------------------------------------------------
      4     -75.40387677   -1.04e-11 o    6.88e-08 *    6.88e-08 *    1.20e-07 *    1.20e-07 *  ~
  ---------------------------------------------------------------------------------------------

  **** Optimization is complete! (in 4 steps) ****

  ==> Optimization Summary <==

  Measures of convergence in internal coordinates in au.
  --------------------------------------------------------------------------------------------------------------- ~
   Step         Total Energy             Delta E       MAX Force       RMS Force        MAX Disp        RMS Disp  ~
  --------------------------------------------------------------------------------------------------------------- ~
      1     -75.403850348420    -75.403850348420      0.00549365      0.00549365      0.00990224      0.00990224  ~
      2     -75.403876735269     -0.000026386850      0.00019833      0.00019833      0.00034503      0.00034503  ~
      3     -75.403876768880     -0.000000033610      0.00000346      0.00000346      0.00000603      0.00000603  ~
      4     -75.403876768890     -0.000000000010      0.00000007      0.00000007      0.00000012      0.00000012  ~
  --------------------------------------------------------------------------------------------------------------- ~

	Writing optimization data to binary file.
	Final energy is    -75.4038767688899
	Final (previous) structure:
	Cartesian Geometry (in Angstrom)
	    O     0.0000000000   0.0000000000  -0.0566033358
	    H     0.0000000000   0.0000000000   0.8983360145
	Saving final (previous) structure.
			--------------------------
			 OPTKING Finished Execution
			--------------------------

    Final optimized geometry and variables:
    Molecular point group: c2v
    Full point group: C_inf_v

    Geometry (in Angstrom), charge = 0, multiplicity = 2:

    O
    H             1          R1

    R1        =    0.9549393540

	Removing binary optimization data file.
	Cleaning optimization helper files.

    Psi4 stopped on: Tuesday, 23 February 2021 01:21PM
    Psi4 wall time for execution: 0:00:02.48

*** Psi4 exiting successfully. Buy a developer a beer!
