                               Psi4 1.3.2 release

  ==> Input File <==

--------------------------------------------------------------------------
memory 4 GB

molecule  {
0 3
O   -1.643497874596   -0.028897210013    0.000000000000
H   -0.693527654244   -0.027319911722    0.000000000000
H   -1.892995470321    0.941339820414    0.000000000000
O    1.806472345756   -0.028694353671    0.000000000000
}
set {
basis aug-cc-pvtz
reference uhf
e_convergence 10
scf_type pk
freeze_core true
}

set ccenergy {
e_convergence 10
r_convergence 10
}

e = energy('ccsd(t)')

print_out('Stephenergy {}'.format(e))

--------------------------------------------------------------------------

    Molecular point group: cs

    Geometry (in Angstrom), charge = 0, multiplicity = 3:

       Center              X                  Y                   Z               Mass
    ------------   -----------------  -----------------  -----------------  -----------------
         O           -1.643497874596    -0.028897210013     0.000000000000    15.994914619570
         H           -0.693527654244    -0.027319911722     0.000000000000     1.007825032230
         H           -1.892995470321     0.941339820414     0.000000000000     1.007825032230
         O            1.806472345756    -0.028694353671     0.000000000000    15.994914619570

  Charge       = 0
  Multiplicity = 3
  Basis Set: AUG-CC-PVTZ
    Blend: AUG-CC-PVTZ

    Orbital Energies [Eh]
    ---------------------

    Alpha Occupied:

       1Ap   -20.729993     2Ap   -20.564108     3Ap    -1.438789
       4Ap    -1.339099     5Ap    -0.729729     1App   -0.729651
       6Ap    -0.703002     7Ap    -0.631714     8Ap    -0.575406
       2App   -0.503297

    Alpha Virtual:

       9Ap     0.033687    10Ap     0.053448    11Ap     0.129037
       3App    0.132825    12Ap     0.146967    13Ap     0.159638
      14Ap     0.181692     4App    0.183249    15Ap     0.206893
      16Ap     0.235149    17Ap     0.266528     5App    0.279784
      18Ap     0.288510     6App    0.318792    19Ap     0.363865
      20Ap     0.385438    21Ap     0.447493    22Ap     0.554573
       7App    0.604077    23Ap     0.608508    24Ap     0.641663
      25Ap     0.666028     8App    0.685096    26Ap     0.711634
       9App    0.734185    10App    0.746704    27Ap     0.753733
      28Ap     0.788700    11App    0.825025    29Ap     0.833989
      30Ap     0.853793    12App    0.874315    31Ap     0.913956
      32Ap     0.921152    13App    0.939895    33Ap     0.947858
      14App    0.967157    34Ap     0.975513    35Ap     1.025280
      36Ap     1.082742    15App    1.157668    37Ap     1.166947
      16App    1.209403    38Ap     1.223219    39Ap     1.254444
      40Ap     1.284239    17App    1.511905    41Ap     1.531376
      18App    1.585676    42Ap     1.598872    43Ap     1.793230
      44Ap     1.816289    45Ap     1.967047    19App    1.979326
      46Ap     1.979391    20App    2.009489    47Ap     2.012342
      21App    2.033828    48Ap     2.035857    22App    2.086780
      49Ap     2.116042    50Ap     2.133574    23App    2.159939
      51Ap     2.227210    24App    2.278220    52Ap     2.331731
      53Ap     2.369956    25App    2.424234    54Ap     2.426550
      26App    2.456620    55Ap     2.483016    56Ap     2.548576
      57Ap     2.683677    27App    2.723554    58Ap     2.728160
      59Ap     2.842867    60Ap     2.915525    28App    2.918759
      61Ap     3.634450    62Ap     3.810854    29App    4.014027
      30App    4.051698    63Ap     4.066618    31App    4.131781
      64Ap     4.174624    65Ap     4.246302    32App    4.290403
      66Ap     4.359579    33App    4.380771    34App    4.417122
      67Ap     4.425354    68Ap     4.546495    69Ap     4.725454
      70Ap     4.889018    35App    5.103667    71Ap     5.120698
      72Ap     5.269163    73Ap     5.356414    36App    5.496303
      74Ap     5.669290    75Ap     6.173264    37App    6.314823
      76Ap     6.314846    38App    6.366617    77Ap     6.367833
      39App    6.462600    78Ap     6.475593    79Ap     6.540919
      80Ap     6.594049    40App    6.713153    81Ap     6.813685
      41App    6.818816    82Ap     6.887324    42App    6.924733
      83Ap     6.948958    84Ap     7.038788    43App    7.105575
      44App    7.241022    85Ap     7.286755    45App    7.324301
      86Ap     7.352509    46App    7.408983    87Ap     7.618380
      88Ap     7.883947    89Ap     7.946825    90Ap     8.726293
      91Ap     8.947343    92Ap    16.018101

    Beta Occupied:

       1Ap   -20.651259     2Ap   -20.564174     3Ap    -1.339366
       4Ap    -1.096248     5Ap    -0.702759     6Ap    -0.577766
       7Ap    -0.539828     1App   -0.503328

    Beta Virtual:

       8Ap     0.033634     9Ap     0.047807     2App    0.050611
      10Ap     0.058901    11Ap     0.142803    12Ap     0.151693
       3App    0.160376    13Ap     0.178240    14Ap     0.207074
      15Ap     0.217709     4App    0.226970    16Ap     0.243790
      17Ap     0.269386     5App    0.279948    18Ap     0.291272
       6App    0.320187    19Ap     0.367194    20Ap     0.392113
      21Ap     0.447986    22Ap     0.556645     7App    0.637006
      23Ap     0.638064    24Ap     0.645791    25Ap     0.669268
       8App    0.699126    26Ap     0.712275     9App    0.734968
      10App    0.747674    27Ap     0.767050    28Ap     0.800380
      29Ap     0.841044    11App    0.858276    30Ap     0.911613
      31Ap     0.923599    12App    0.925655    32Ap     0.944540
      13App    0.946352    33Ap     0.967426    34Ap     1.005908
      14App    1.021484    35Ap     1.028717    36Ap     1.090910
      15App    1.161651    37Ap     1.170049    16App    1.217321
      38Ap     1.256383    39Ap     1.271468    40Ap     1.289215
      17App    1.512405    41Ap     1.549237    18App    1.586874
      42Ap     1.622622    43Ap     1.796027    44Ap     1.818062
      45Ap     1.969976    19App    2.017494    46Ap     2.017540
      20App    2.037776    47Ap     2.040949    21App    2.120471
      48Ap     2.158270    49Ap     2.166117    22App    2.179445
      50Ap     2.180382    23App    2.212892    51Ap     2.269805
      24App    2.279564    52Ap     2.345601    53Ap     2.384583
      25App    2.427461    54Ap     2.428326    26App    2.464279
      55Ap     2.489992    56Ap     2.553974    57Ap     2.690210
      27App    2.724027    58Ap     2.728578    59Ap     2.847159
      60Ap     2.917394    28App    2.919351    61Ap     3.634610
      62Ap     3.811901    29App    4.014274    30App    4.115283
      63Ap     4.163142    31App    4.238392    64Ap     4.238486
      65Ap     4.256334    32App    4.290529    66Ap     4.379572
      33App    4.380970    34App    4.418831    67Ap     4.452510
      68Ap     4.547512    69Ap     4.726330    70Ap     4.889721
      35App    5.103670    71Ap     5.120947    72Ap     5.269351
      73Ap     5.357409    36App    5.496306    74Ap     5.669647
      75Ap     6.174066    37App    6.423774    76Ap     6.423792
      38App    6.442731    77Ap     6.444203    78Ap     6.517736
      39App    6.518515    79Ap     6.554803    80Ap     6.640815
      40App    6.715568    81Ap     6.885324    41App    7.006214
      82Ap     7.006701    42App    7.034387    83Ap     7.058534
      43App    7.107217    84Ap     7.122077    44App    7.241218
      85Ap     7.287043    45App    7.324980    86Ap     7.352714
      46App    7.409503    87Ap     7.620882    88Ap     7.884090
      89Ap     7.947521    90Ap     8.726740    91Ap     9.024494
      92Ap    16.018452

    Final Occupation by Irrep:
             Ap   App
    DOCC [     7,    1 ]
    SOCC [     1,    1 ]

  @UHF Final Energy:  -150.87194997803061

   => Energetics <=

    Nuclear Repulsion Energy =             21.6423753349054806
    One-Electron Energy =                -251.1091353329593971
    Two-Electron Energy =                  78.5948100200233029
    Total Energy =                       -150.8719499780306137

  UHF NO Occupations:
  HONO-2 :    7 Ap 1.9970427
  HONO-1 :    2App 1.0000000
  HONO-0 :    8 Ap 1.0000000
  LUNO+0 :    9 Ap 0.0029573
  LUNO+1 :   10 Ap 0.0017366
  LUNO+2 :   11 Ap 0.0000024
  LUNO+3 :   12 Ap 0.0000005

Computation Completed

Properties will be evaluated at   0.000000,   0.000000,   0.000000 [a0]

Properties computed using the SCF density matrix

  Nuclear Dipole Moment: [e a0]
     X:    -2.4240      Y:     0.8566      Z:     0.0000

  Electronic Dipole Moment: [e a0]
     X:     2.9568      Y:    -0.2306      Z:     0.0000

  Dipole Moment: [e a0]
     X:     0.5328      Y:     0.6260      Z:     0.0000     Total:     0.8220

  Dipole Moment: [D]
     X:     1.3542      Y:     1.5911      Z:     0.0000     Total:     2.0894

*** tstop() called on c4-12.compute.lan at Tue Mar  9 14:24:05 2021
Module time:
	user time   =      62.29 seconds =       1.04 minutes
	system time =       0.95 seconds =       0.02 minutes
	total time  =          6 seconds =       0.10 minutes
Total time:
	user time   =      62.29 seconds =       1.04 minutes
	system time =       0.95 seconds =       0.02 minutes
	total time  =          6 seconds =       0.10 minutes
 MINTS: Wrapper to libmints.
   by Justin Turney

   Calculation information:
      Number of threads:                12
      Number of atoms:                   4
      Number of AO shells:              46
      Number of SO shells:              46
      Number of primitives:             82
      Number of atomic orbitals:       160
      Number of basis functions:       138

      Number of irreps:                  2
      Integral cutoff                 0.00e+00
      Number of functions per irrep: [  92   46 ]

 OEINTS: Overlap, kinetic, potential, dipole, and quadrupole integrals
         stored in file 35.

      Computing two-electron integrals...done
      Computed 22951235 non-zero two-electron integrals.
        Stored in file 33.

*** tstart() called on c4-12.compute.lan
*** at Tue Mar  9 14:24:07 2021

	Wfn Parameters:
	--------------------
	Wavefunction         = CCSD_T
	Number of irreps     = 2
	Number of MOs        = 138
	Number of active MOs = 136
	AO-Basis             = NONE
	Semicanonical        = false
	Reference            = UHF
	Print Level          = 1

	IRREP	# MOs	# FZDC	# DOCC	# SOCC	# VIRT	# FZVR
	-----	-----	------	------	------	------	------
	 Ap	   92	    2	    5	    1	    84	    0
	 App	   46	    0	    1	    1	    44	    0
	Transforming integrals...
	IWL integrals will be deleted.
	(OO|OO)...
	Presorting SO-basis two-electron integrals.
	Sorting File: SO Ints (nn|nn) nbuckets = 1
	Transforming the one-electron integrals and constructing Fock matrices
	Starting AA/AB first half-transformation.
	Sorting AA/AB half-transformed integrals.
	Starting BB first half-transformation.
	Sorting BB half-transformed integrals.
	First half integral transformation complete.
	Starting AA second half-transformation.
	Starting AB second half-transformation.
	Starting BB second half-transformation.
	Two-electron integral transformation complete.
	(OO|OV)...
	Starting AA second half-transformation.
	Starting AB second half-transformation.
	Starting BB second half-transformation.
	Two-electron integral transformation complete.
	(OO|VV)...
	Starting AA second half-transformation.
	Starting AB second half-transformation.
	Starting BB second half-transformation.
	Two-electron integral transformation complete.
	(OV|OO)...
	Starting AA/AB first half-transformation.
	Sorting AA/AB half-transformed integrals.
	Starting BB first half-transformation.
	Sorting BB half-transformed integrals.
	First half integral transformation complete.
	Starting AA second half-transformation.
	Starting AB second half-transformation.
	Starting BB second half-transformation.
	Two-electron integral transformation complete.
	(OV|OV)...
	Starting AA second half-transformation.
	Starting AB second half-transformation.
	Starting BB second half-transformation.
	Two-electron integral transformation complete.
	(OV|VV)...
	Starting AA second half-transformation.
	Starting AB second half-transformation.
	Starting BB second half-transformation.
	Two-electron integral transformation complete.
	(VV|OO)...
	Starting AA/AB first half-transformation.
	Sorting AA/AB half-transformed integrals.
	Starting BB first half-transformation.
	Sorting BB half-transformed integrals.
	First half integral transformation complete.
	Starting AA second half-transformation.
	Starting AB second half-transformation.
	Starting BB second half-transformation.
	Two-electron integral transformation complete.
	(VV|OV)...
	Starting AA second half-transformation.
	Starting AB second half-transformation.
	Starting BB second half-transformation.
	Two-electron integral transformation complete.
	(VV|VV)...
	Starting AA second half-transformation.
	Starting AB second half-transformation.
	Starting BB second half-transformation.
	Two-electron integral transformation complete.
	Frozen core energy     =   -125.37641372320533

	Size of irrep 0 of <AB|CD> integrals:     19.643 (MW) /    157.141 (MB)
	Size of irrep 1 of <AB|CD> integrals:     13.660 (MW) /    109.283 (MB)
	Total:                                    33.303 (MW) /    266.424 (MB)

	Size of irrep 0 of <ab|cd> integrals:     20.794 (MW) /    166.349 (MB)
	Size of irrep 1 of <ab|cd> integrals:     14.631 (MW) /    117.045 (MB)
	Total:                                    35.424 (MW) /    283.394 (MB)

	Size of irrep 0 of <Ab|Cd> integrals:     83.174 (MW) /    665.395 (MB)
	Size of irrep 1 of <Ab|Cd> integrals:     56.550 (MW) /    452.403 (MB)
	Total:                                   139.725 (MW) /   1117.798 (MB)

	Size of irrep 0 of <IA|BC> integrals:      5.323 (MW) /     42.586 (MB)
	Size of irrep 1 of <IA|BC> integrals:      3.193 (MW) /     25.547 (MB)
	Total:                                     8.517 (MW) /     68.133 (MB)

	Size of irrep 0 of <ia|bc> integrals:      4.348 (MW) /     34.780 (MB)
	Size of irrep 1 of <ia|bc> integrals:      2.372 (MW) /     18.972 (MB)
	Total:                                     6.719 (MW) /     53.752 (MB)

	Size of irrep 0 of <Ia|Bc> integrals:      5.472 (MW) /     43.776 (MB)
	Size of irrep 1 of <Ia|Bc> integrals:      3.309 (MW) /     26.470 (MB)
	Total:                                     8.781 (MW) /     70.246 (MB)

	Size of irrep 0 of <iA|bC> integrals:      4.232 (MW) /     33.853 (MB)
	Size of irrep 1 of <iA|bC> integrals:      2.286 (MW) /     18.289 (MB)
	Total:                                     6.518 (MW) /     52.142 (MB)

	Size of irrep 0 of tIjAb amplitudes:       0.292 (MW) /      2.335 (MB)
	Size of irrep 1 of tIjAb amplitudes:       0.120 (MW) /      0.963 (MB)
	Total:                                     0.412 (MW) /      3.297 (MB)

	Nuclear Rep. energy          =     21.64237533490548
	SCF energy                   =   -150.87194997803061
	One-electron energy          =    -82.86584127228674
	Two-electron (AA) energy     =      9.89934641027037
	Two-electron (BB) energy     =      5.26318539639236
	Two-electron (AB) energy     =     20.56539787589247
	Two-electron energy          =     35.72792968255520
	Reference energy             =   -150.87194997803141

*** tstop() called on c4-12.compute.lan at Tue Mar  9 14:24:39 2021
Module time:
	user time   =     105.00 seconds =       1.75 minutes
	system time =      16.80 seconds =       0.28 minutes
	total time  =         32 seconds =       0.53 minutes
Total time:
	user time   =     173.56 seconds =       2.89 minutes
	system time =      18.30 seconds =       0.30 minutes
	total time  =         40 seconds =       0.67 minutes
            **************************
            *                        *
            *        CCENERGY        *
            *                        *
            **************************

    Nuclear Rep. energy (wfn)     =   21.642375334905481
    SCF energy          (wfn)     = -150.871949978030614
    Reference energy    (file100) = -150.871949978031410

    Input parameters:
    -----------------
    Wave function   =     CCSD_T
    Reference wfn   =     UHF
    Brueckner       =     No
    Memory (Mbytes) =     4000.0
    Maxiter         =     50
    R_Convergence   =     1.0e-10
    E_Convergence   =     1.0e-10
    Restart         =     Yes
    DIIS            =     Yes
    AO Basis        =     NONE
    ABCD            =     NEW
    Cache Level     =     2
    Cache Type      =     LRU
    Print Level     =     1
    Num. of threads =     12
    # Amps to Print =     10
    Print MP2 Amps? =     No
    Analyze T2 Amps =     No
    Print Pair Ener =     No
    Local CC        =     No
    SCS-MP2         =     False
    SCSN-MP2        =     False
    SCS-CCSD        =     False

MP2 correlation energy -0.4171095585328189
                Solving CC Amplitude Equations
                ------------------------------
  Iter             Energy              RMS        T1Diag      D1Diag    New D1Diag    D2Diag
  ----     ---------------------    ---------   ----------  ----------  ----------   --------
     0        -0.417109558532819    0.000e+00    0.000000    0.000000    0.000000    0.000000
     1        -0.427583553829910    5.753e-02    0.010619    0.000000    0.000000    0.000000
     2        -0.435812210721207    1.721e-02    0.011079    0.000000    0.000000    0.000000
     3        -0.437992623522984    8.655e-03    0.012957    0.000000    0.000000    0.000000
     4        -0.437866623696625    2.544e-03    0.013311    0.000000    0.000000    0.000000
     5        -0.437854754929599    1.281e-03    0.013459    0.000000    0.000000    0.000000
     6        -0.437880506654125    5.070e-04    0.013473    0.000000    0.000000    0.000000
     7        -0.437884502994192    2.277e-04    0.013463    0.000000    0.000000    0.000000
     8        -0.437885375813296    7.713e-05    0.013457    0.000000    0.000000    0.000000
     9        -0.437886618882021    4.548e-05    0.013456    0.000000    0.000000    0.000000
    10        -0.437885421455070    3.697e-05    0.013456    0.000000    0.000000    0.000000
    11        -0.437885532053062    3.555e-05    0.013456    0.000000    0.000000    0.000000
    12        -0.437885395428871    3.497e-05    0.013457    0.000000    0.000000    0.000000
    13        -0.437885307235134    3.454e-05    0.013458    0.000000    0.000000    0.000000
    14        -0.437885728995915    3.361e-05    0.013464    0.000000    0.000000    0.000000
    15        -0.437885747395295    3.119e-05    0.013478    0.000000    0.000000    0.000000
    16        -0.437885746222258    2.588e-05    0.013556    0.000000    0.000000    0.000000
    17        -0.437885753004436    1.513e-05    0.013609    0.000000    0.000000    0.000000
    18        -0.437885684415944    6.550e-06    0.013634    0.000000    0.000000    0.000000
    19        -0.437885830549597    2.945e-06    0.013639    0.000000    0.000000    0.000000
    20        -0.437885910278589    1.382e-06    0.013640    0.000000    0.000000    0.000000
    21        -0.437885915610455    5.833e-07    0.013640    0.000000    0.000000    0.000000
    22        -0.437885916155342    2.328e-07    0.013640    0.000000    0.000000    0.000000
    23        -0.437885916938885    9.984e-08    0.013640    0.000000    0.000000    0.000000
    24        -0.437885916898398    4.248e-08    0.013640    0.000000    0.000000    0.000000
    25        -0.437885917579331    2.252e-08    0.013640    0.000000    0.000000    0.000000
    26        -0.437885917990336    8.131e-09    0.013640    0.000000    0.000000    0.000000
    27        -0.437885918064079    3.322e-09    0.013640    0.000000    0.000000    0.000000
    28        -0.437885918088419    2.368e-09    0.013640    0.000000    0.000000    0.000000
    29        -0.437885918089946    2.124e-09    0.013640    0.000000    0.000000    0.000000
    30        -0.437885918076595    1.966e-09    0.013640    0.000000    0.000000    0.000000
    31        -0.437885918059878    1.826e-09    0.013640    0.000000    0.000000    0.000000
    32        -0.437885918049290    1.670e-09    0.013640    0.000000    0.000000    0.000000
    33        -0.437885918047952    1.373e-09    0.013640    0.000000    0.000000    0.000000
    34        -0.437885918051801    8.084e-10    0.013640    0.000000    0.000000    0.000000
    35        -0.437885918054777    3.632e-10    0.013640    0.000000    0.000000    0.000000
    36        -0.437885918055388    1.400e-10    0.013640    0.000000    0.000000    0.000000

      * MP2 total energy                      = -151.289059536564224
      * CCSD total energy                     = -151.309835896085502
      * CCSD(T) total energy                     = -151.322238307557427
*** Psi4 exiting successfully. Buy a developer a beer!
