                               Psi4 1.4a2.dev191

  ==> Input File <==

--------------------------------------------------------------------------
memory 10 GB
molecule {
0 2
O
H 1 R1
R1 = 0.9478992047
}
set {
basis aug-cc-pvtz
e_convergence 10
g_convergence gau_verytight
reference uhf
scf_type pk
mp2_type conv
}

optimize("mp2")

--------------------------------------------------------------------------

    Molecular point group: c2v
  Charge       = 0
  Multiplicity = 2
  Basis Set: AUG-CC-PVTZ
    Blend: AUG-CC-PVTZ
  @UHF Final Energy:   -75.42195151987292
    Total Energy =                        -75.4219515198729198
    Molecular point group: c2v
  Basis Set: AUG-CC-PVTZ
    Blend: AUG-CC-PVTZ
  @UHF Final Energy:   -75.42177218563899
    Total Energy =                        -75.4217721856389716
  Basis Set: AUG-CC-PVTZ
    Blend: AUG-CC-PVTZ
  @UHF Final Energy:   -75.42175158936723
    Total Energy =                        -75.4217515893672186
  Basis Set: AUG-CC-PVTZ
    Blend: AUG-CC-PVTZ
  @UHF Final Energy:   -75.42175029560849
    Total Energy =                        -75.4217502956084900
  Charge       = 0
  Multiplicity = 2
  Basis Set: AUG-CC-PVTZ
    Blend: AUG-CC-PVTZ

    Orbital Energies [Eh]
    ---------------------

    Alpha Occupied:

       1A1   -20.640819     2A1    -1.391122     3A1    -0.683945
       1B2    -0.658758     1B1    -0.561882

    Alpha Virtual:

       4A1     0.029884     5A1     0.136389     2B2     0.152696
       2B1     0.162010     6A1     0.184106     7A1     0.262713
       3B2     0.268774     3B1     0.275312     8A1     0.427034
       9A1     0.630035     1A2     0.638710    10A1     0.649958
       4B2     0.714330     4B1     0.729033     5B2     0.853308
      11A1     0.876160     5B1     0.880638    12A1     0.925524
       2A2     0.938217    13A1     0.939263     6B2     0.981727
      14A1     1.000834     6B1     1.008294     7B2     1.497817
       7B1     1.517096    15A1     1.695206    16A1     2.032912
       8B2     2.043099     8B1     2.043119     3A2     2.097608
      17A1     2.098204     9B2     2.252767     9B1     2.289749
      18A1     2.321234     4A2     2.322224    19A1     2.440900
      20A1     2.489333    10B2     2.727489    10B1     2.766136
      21A1     3.583497    11B2     4.023274     5A2     4.032899
      22A1     4.033148    11B1     4.080301    12B2     4.299592
      12B1     4.312455    23A1     4.642115    24A1     5.120679
      13B2     5.264559    13B1     5.303406    25A1     6.131321
      14B2     6.431484    14B1     6.431508     6A2     6.594518
      26A1     6.596210    27A1     6.965565     7A2     6.965616
      15B2     7.133570    16B2     7.168988    15B1     7.185630
      16B1     7.230918    28A1     7.377459    29A1     7.696434
      30A1    12.964832

    Beta Occupied:

       1A1   -20.601170     2A1    -1.233029     3A1    -0.639986
       1B1    -0.513854

    Beta Virtual:

       4A1     0.031025     1B2     0.063241     5A1     0.138915
       2B1     0.164206     6A1     0.188324     2B2     0.210022
       7A1     0.265937     3B1     0.275243     3B2     0.289749
       8A1     0.437283     9A1     0.645844     1A2     0.655381
      10A1     0.656650     4B1     0.727239     4B2     0.730950
      11A1     0.880635     5B1     0.887403     5B2     0.912788
      12A1     0.936666     2A2     0.940266    13A1     0.941149
      14A1     1.011614     6B1     1.016156     6B2     1.059703
       7B1     1.516777     7B2     1.522329    15A1     1.713911
      16A1     2.055059     8B1     2.062177     8B2     2.062180
       3A2     2.170692    17A1     2.172375     9B1     2.294075
       9B2     2.298739    18A1     2.338297     4A2     2.338767
      19A1     2.457740    20A1     2.503195    10B2     2.770946
      10B1     2.772842    21A1     3.589093     5A2     4.035648
      22A1     4.035678    11B1     4.098370    11B2     4.135385
      12B2     4.305371    12B1     4.309289    23A1     4.652165
      24A1     5.143710    13B2     5.306146    13B1     5.310744
      25A1     6.155717    14B1     6.485816    14B2     6.485816
       6A2     6.635145    26A1     6.635258     7A2     7.057749
      27A1     7.057969    15B2     7.178521    15B1     7.194616
      16B1     7.250769    16B2     7.255247    28A1     7.394903
      29A1     7.725312    30A1    12.997800

    Final Occupation by Irrep:
             A1    A2    B1    B2
    DOCC [     3,    0,    1,    0 ]
    SOCC [     0,    0,    0,    1 ]

  @UHF Final Energy:   -75.42175021618888

   => Energetics <=

    Nuclear Repulsion Energy =              4.3806626750224797
    One-Electron Energy =                -112.6802604773710073
    Two-Electron Energy =                  32.8778475861596462
    Total Energy =                        -75.4217502161888831

  UHF NO Occupations:
  HONO-2 :    2 A1 1.9992196
  HONO-1 :    3 A1 1.9978775
  HONO-0 :    1 B2 1.0000000
  LUNO+0 :    4 A1 0.0021225
  LUNO+1 :    5 A1 0.0007804
  LUNO+2 :    2 B1 0.0006180
  LUNO+3 :    6 A1 0.0000011

Computation Completed

Properties will be evaluated at   0.000000,   0.000000,   0.000000 [a0]

Properties computed using the SCF density matrix

  Nuclear Dipole Moment: [e a0]
     X:     0.0000      Y:     0.0000      Z:     0.8520

  Electronic Dipole Moment: [e a0]
     X:     0.0000      Y:     0.0000      Z:    -0.1602

  Dipole Moment: [e a0]
     X:     0.0000      Y:     0.0000      Z:     0.6918     Total:     0.6918

  Dipole Moment: [D]
     X:     0.0000      Y:     0.0000      Z:     1.7584     Total:     1.7584

*** tstop() called on c4-9.compute.lan at Tue Feb 23 13:25:59 2021
Module time:
	user time   =       0.63 seconds =       0.01 minutes
	system time =       0.02 seconds =       0.00 minutes
	total time  =          1 seconds =       0.02 minutes
Total time:
	user time   =      12.59 seconds =       0.21 minutes
	system time =       2.02 seconds =       0.03 minutes
	total time  =         15 seconds =       0.25 minutes
 MINTS: Wrapper to libmints.
   by Justin Turney

   Calculation information:
      Number of threads:                 1
      Number of atoms:                   2
      Number of AO shells:              23
      Number of SO shells:              23
      Number of primitives:             41
      Number of atomic orbitals:        80
      Number of basis functions:        69

      Number of irreps:                  4
      Integral cutoff                 0.00e+00
      Number of functions per irrep: [  30    7   16   16 ]

 OEINTS: Overlap, kinetic, potential, dipole, and quadrupole integrals
         stored in file 35.

      Computing two-electron integrals...done
      Computed 673710 non-zero two-electron integrals.
        Stored in file 33.

*** tstart() called on c4-9.compute.lan
*** at Tue Feb 23 13:25:59 2021

 ==============================================================================
 ==============================================================================
 ==============================================================================

                       MP2
              Program Written by Ugur Bozkaya,
              Latest Revision June 25, 2014.

 ==============================================================================
 ==============================================================================
 ==============================================================================

	RMS orbital gradient is changed to :     1.00e-07
	MAX orbital gradient is changed to :     1.00e-04
	MO spaces per irreps...

	IRREP   FC   AOCC  BOCC  AVIR    BVIR  FV
	==========================================
	  A1     0     3     3    27     27     0
	  A2     0     0     0     7      7     0
	  B1     0     1     1    15     15     0
	  B2     0     1     0    15     16     0
	==========================================

	Computing MP2 energy using SCF MOs (Canonical MP2)...
	==============================================================================
	Nuclear Repulsion Energy (a.u.)    :     4.38066267502248
	SCF Energy (a.u.)                  :   -75.42175021618888
	REF Energy (a.u.)                  :   -75.42175021618888
	Alpha-Alpha Contribution (a.u.)    :    -0.03433711636318
	Alpha-Beta Contribution (a.u.)     :    -0.16742749147829
	Beta-Beta Contribution (a.u.)      :    -0.01633567759185
	Scaled_SS Correlation Energy (a.u.):    -0.01689093131835
	Scaled_OS Correlation Energy (a.u.):    -0.20091298977395
	SCS-MP2 Total Energy (a.u.)        :   -75.63955413728118
	SOS-MP2 Total Energy (a.u.)        :   -75.42175021618888
	SCSN-MP2 Total Energy (a.u.)       :   -75.51093433354976
	SCS-MP2-VDW Total Energy (a.u.)    :   -75.66139380225862
	SOS-PI-MP2 Total Energy (a.u.)     :   -75.65614870425848
	MP2 Correlation Energy (a.u.)      :    -0.21810028543333
	MP2 Total Energy (a.u.)            :   -75.63985050162221
	==============================================================================
	Analytic gradient computation is starting...
	Computing response density matrices...
	Computing off-diagonal blocks of GFM...
	Forming independent-pairs...
	Number of alpha independent-pairs:111
	Number of beta independent-pairs : 96
	Computing orbital gradient...
	Computing diagonal blocks of GFM...
	Solving orbital Z-vector equations...
	Forming relaxed response density matrices...
	Forming relaxed GFM...
	Writing particle density matrices and GFM to disk...
	Necessary information has been sent to DERIV, which will take care of the rest.

*** tstop() called on c4-9.compute.lan at Tue Feb 23 13:26:00 2021
Module time:
	user time   =       0.57 seconds =       0.01 minutes
	system time =       0.22 seconds =       0.00 minutes
	total time  =          1 seconds =       0.02 minutes
Total time:
	user time   =      13.35 seconds =       0.22 minutes
	system time =       2.26 seconds =       0.04 minutes
	total time  =         16 seconds =       0.27 minutes
  Cartesian Displacement SALCs
  By SALC:
  Number of SALCs: 2, nirreps: A1
  Project out translations: False
  Project out rotations: False
	irrep = 0, ncomponent = 1
		0: atom 0, direction z, coef 1.000000
	irrep = 0, ncomponent = 1
		0: atom 1, direction z, coef 1.000000

  By Atomic Center:
  Number of atomic centers: 2
   Atomic Center 0:
	x component, size = 0
	y component, size = 0
	z component, size = 1
		0: salc 0, irrep 0, coef 1.000000
   Atomic Center 1:
	x component, size = 0
	y component, size = 0
	z component, size = 1
		0: salc 1, irrep 0, coef 1.000000

    Molecular point group: c2v
    Full point group: C_inf_v

    Geometry (in Bohr), charge = 0, multiplicity = 2:

       Center              X                  Y                   Z
    ------------   -----------------  -----------------  -----------------
         O            0.000000000000     0.000000000000    -0.108247135045
         H            0.000000000000     0.000000000000     1.717960585904

	Presorting MO-basis TPDMs.
	Sorting File: MO TPDM (AA|AA) nbuckets = 1
	Sorting File: MO TPDM (AA|aa) nbuckets = 1
	Sorting File: MO TPDM (aa|aa) nbuckets = 1
	Starting first half-transformation.
	Sorting half-transformed TPDMs.
	First half integral transformation complete.

  -Nuclear Repulsion Energy 1st Derivatives:
     Atom            X                  Y                   Z
    ------   -----------------  -----------------  -----------------
       1        0.000000000000     0.000000000000     2.398775684042
       2        0.000000000000     0.000000000000    -2.398775684042

  -Core Hamiltonian Gradient:
     Atom            X                  Y                   Z
    ------   -----------------  -----------------  -----------------
       1        0.000000000000     0.000000000000    -4.913651837985
       2        0.000000000000     0.000000000000     4.913651837985

  -Lagrangian contribution to gradient:
     Atom            X                  Y                   Z
    ------   -----------------  -----------------  -----------------
       1        0.000000000000     0.000000000000     0.278569560716
       2        0.000000000000     0.000000000000    -0.278569560716

  -Two-electron contribution to gradient:
     Atom            X                  Y                   Z
    ------   -----------------  -----------------  -----------------
       1        0.000000000000     0.000000000000     2.236306769785
       2        0.000000000000     0.000000000000    -2.236306769785

  -Total gradient:
     Atom            X                  Y                   Z
    ------   -----------------  -----------------  -----------------
       1        0.000000000000     0.000000000000     0.000000176558
       2        0.000000000000     0.000000000000    -0.000000176558

			-----------------------------------------
			 OPTKING 2.0: for geometry optimizations
			  - R.A. King,  Bethel University
			-----------------------------------------

	Previous internal coordinate definitions found.
	---Fragment 1 Geometry and Gradient---
	 O           0.0000000000        0.0000000000       -0.1082471350
	 H           0.0000000000        0.0000000000        1.7179605859
	             0.0000000000        0.0000000000        0.0000001766
	             0.0000000000        0.0000000000       -0.0000001766

	---Fragment 1 Intrafragment Coordinates---
	 - Coordinate -           - BOHR/RAD -       - ANG/DEG -
	 R(1,2)           =         1.826208	       0.966388

	Current energy   :       -75.6398505016

	Energy change for the previous step:
		Projected    :        -0.0000000000
		Actual       :         0.0000000000

	Performing BFGS update.
	Previous computed or guess Hessian on step 1.
	Denominators (dg)(dq) or (dq)(dq) are very small.
	 Skipping Hessian update for step 4.
	Denominators (dg)(dq) or (dq)(dq) are very small.
	 Skipping Hessian update for step 3.
	Steps to be used in Hessian update: 2 1
	Taking RFO optimization step.
	Going to follow RFO solution 1.
	Using RFO vector 1.
	Norm of target step-size    0.00000
	Projected energy change by RFO approximation:        -0.0000000000

	Back-transformation to cartesian coordinates...
	Successfully converged to displaced geometry.

	--- Internal Coordinate Step in ANG or DEG, aJ/ANG or AJ/DEG ---
	 ---------------------------------------------------------------------------
	   Coordinate                Previous        Force       Change         New
	   ----------                --------       ------       ------       ------
	    1 R(1,2)          =      0.966388     0.000001     0.000000     0.966388
	 ---------------------------------------------------------------------------
	Successfully symmetrized geometry.

  ==> Convergence Check <==

  Measures of convergence in internal coordinates in au.
  Criteria marked as inactive (o), active & met (*), and active & unmet ( ).
  ---------------------------------------------------------------------------------------------
   Step     Total Energy     Delta E     MAX Force     RMS Force      MAX Disp      RMS Disp
  ---------------------------------------------------------------------------------------------
    Convergence Criteria             o    2.00e-06 *    1.00e-06 *    6.00e-06 *    4.00e-06 *
  ---------------------------------------------------------------------------------------------
      5     -75.63985050    9.95e-13 o    1.77e-07 *    1.77e-07 *    3.17e-07 *    3.17e-07 *  ~
  ---------------------------------------------------------------------------------------------

  **** Optimization is complete! (in 5 steps) ****

  ==> Optimization Summary <==

  Measures of convergence in internal coordinates in au.
  --------------------------------------------------------------------------------------------------------------- ~
   Step         Total Energy             Delta E       MAX Force       RMS Force        MAX Disp        RMS Disp  ~
  --------------------------------------------------------------------------------------------------------------- ~
      1     -75.639517132911    -75.639517132911      0.01948942      0.01948942      0.03347262      0.03347262  ~
      2     -75.639849938302     -0.000332805391      0.00076943      0.00076943      0.00137579      0.00137579  ~
      3     -75.639850499520     -0.000000561217      0.00004700      0.00004700      0.00008425      0.00008425  ~
      4     -75.639850501623     -0.000000002104      0.00000288      0.00000288      0.00000516      0.00000516  ~
      5     -75.639850501622      0.000000000001      0.00000018      0.00000018      0.00000032      0.00000032  ~
  --------------------------------------------------------------------------------------------------------------- ~

	Writing optimization data to binary file.
	Final energy is    -75.6398505016222
	Final (previous) structure:
	Cartesian Geometry (in Angstrom)
	    O     0.0000000000   0.0000000000  -0.0572819168
	    H     0.0000000000   0.0000000000   0.9091055873
	Saving final (previous) structure.
			--------------------------
			 OPTKING Finished Execution
			--------------------------

    Final optimized geometry and variables:
    Molecular point group: c2v
    Full point group: C_inf_v

    Geometry (in Angstrom), charge = 0, multiplicity = 2:

    O
    H             1          R1

    R1        =    0.9663875079

	Removing binary optimization data file.
	Cleaning optimization helper files.

    Psi4 stopped on: Tuesday, 23 February 2021 01:26PM
    Psi4 wall time for execution: 0:00:18.03

*** Psi4 exiting successfully. Buy a developer a beer!
