                               Psi4 1.3.2 release

  ==> Input File <==

--------------------------------------------------------------------------
memory 4 GB

molecule  {
0 3
O   -1.522636442466   -0.028942593331    0.000000000000
H   -0.559924226166   -0.012705345277    0.000000000000
H   -1.777978429249    0.899030721309    0.000000000000
O    1.669945563838   -0.026903963023    0.000000000000
}
set {
basis aug-cc-pvtz
reference uhf
e_convergence 10
scf_type pk
freeze_core true
}

set ccenergy {
e_convergence 10
r_convergence 10
}

e = energy('ccsd(t)')

print_out('Stephenergy {}'.format(e))

--------------------------------------------------------------------------

    Molecular point group: cs

    Geometry (in Angstrom), charge = 0, multiplicity = 3:

       Center              X                  Y                   Z               Mass
    ------------   -----------------  -----------------  -----------------  -----------------
         O           -1.522636442466    -0.028942593331     0.000000000000    15.994914619570
         H           -0.559924226166    -0.012705345277     0.000000000000     1.007825032230
         H           -1.777978429249     0.899030721309     0.000000000000     1.007825032230
         O            1.669945563838    -0.026903963023     0.000000000000    15.994914619570

  Charge       = 0
  Multiplicity = 3
  Basis Set: AUG-CC-PVTZ
    Blend: AUG-CC-PVTZ

    Orbital Energies [Eh]
    ---------------------

    Alpha Occupied:

       1Ap   -20.734886     2Ap   -20.558578     3Ap    -1.444196
       4Ap    -1.342428     5Ap    -0.734736     1App   -0.734593
       6Ap    -0.709528     7Ap    -0.636853     8Ap    -0.574398
       2App   -0.501578

    Alpha Virtual:

       9Ap     0.034578    10Ap     0.053257    11Ap     0.127562
       3App    0.131531    12Ap     0.148046    13Ap     0.161200
      14Ap     0.183387     4App    0.186222    15Ap     0.211396
      16Ap     0.241537    17Ap     0.271990     5App    0.282355
      18Ap     0.293146     6App    0.323450    19Ap     0.372231
      20Ap     0.392467    21Ap     0.459810    22Ap     0.558787
       7App    0.600066    23Ap     0.608658    24Ap     0.644070
      25Ap     0.668383    26Ap     0.712198     8App    0.712501
       9App    0.734737    10App    0.747064    27Ap     0.765522
      28Ap     0.796658    11App    0.824735    29Ap     0.851543
      30Ap     0.865720    12App    0.882915    31Ap     0.922891
      13App    0.942302    32Ap     0.943906    33Ap     0.956764
      14App    0.983633    34Ap     0.986593    35Ap     1.042896
      36Ap     1.127910    37Ap     1.168514    15App    1.178006
      38Ap     1.194071    16App    1.258853    39Ap     1.272478
      40Ap     1.323228    17App    1.528185    41Ap     1.555876
      18App    1.600877    42Ap     1.688828    43Ap     1.818009
      44Ap     1.825475    19App    1.975627    45Ap     1.975665
      46Ap     1.995863    20App    2.011143    47Ap     2.017710
      21App    2.048032    48Ap     2.060206    22App    2.122161
      49Ap     2.163430    50Ap     2.164879    23App    2.210578
      24App    2.294073    51Ap     2.299246    52Ap     2.330144
      53Ap     2.414408    25App    2.448144    54Ap     2.460407
      26App    2.523741    55Ap     2.536052    56Ap     2.631072
      57Ap     2.668261    27App    2.729116    58Ap     2.750958
      59Ap     2.865823    60Ap     2.943808    28App    2.945631
      61Ap     3.697391    62Ap     3.892798    29App    4.034473
      30App    4.058232    63Ap     4.076512    31App    4.171638
      64Ap     4.201209    65Ap     4.272152    32App    4.300256
      66Ap     4.376596    33App    4.393093    67Ap     4.437165
      34App    4.439750    68Ap     4.575722    69Ap     4.781623
      70Ap     4.959075    35App    5.154528    71Ap     5.178896
      72Ap     5.307122    73Ap     5.372064    36App    5.525116
      74Ap     5.691308    75Ap     6.195865    37App    6.310277
      76Ap     6.310321    38App    6.372614    77Ap     6.375397
      39App    6.519563    78Ap     6.526925    79Ap     6.555811
      80Ap     6.634091    40App    6.724294    81Ap     6.812303
      41App    6.818451    82Ap     6.911731    42App    6.933647
      83Ap     6.966359    84Ap     7.049322    43App    7.146775
      44App    7.274450    85Ap     7.323703    45App    7.325907
      86Ap     7.359016    46App    7.441464    87Ap     7.658303
      88Ap     7.948051    89Ap     7.963502    90Ap     8.807887
      91Ap     9.383692    92Ap    16.520823

    Beta Occupied:

       1Ap   -20.656108     2Ap   -20.558716     3Ap    -1.343025
       4Ap    -1.101743     5Ap    -0.708548     6Ap    -0.580884
       7Ap    -0.542111     1App   -0.501632

    Beta Virtual:

       8Ap     0.034210     9Ap     0.046069     2App    0.047678
      10Ap     0.057674    11Ap     0.144161    12Ap     0.150966
       3App    0.160410    13Ap     0.179836    14Ap     0.210226
      15Ap     0.217765     4App    0.225936    16Ap     0.251159
      17Ap     0.273990     5App    0.282693    18Ap     0.295403
       6App    0.327129    19Ap     0.376022    20Ap     0.403089
      21Ap     0.460535    22Ap     0.561697     7App    0.632375
      23Ap     0.638952    24Ap     0.647168    25Ap     0.671362
      26Ap     0.712898     8App    0.726303     9App    0.735883
      10App    0.748489    27Ap     0.784151    28Ap     0.808886
      29Ap     0.857666    11App    0.867385    30Ap     0.918233
      12App    0.935709    31Ap     0.943588    13App    0.949656
      32Ap     0.954000    33Ap     0.974472    34Ap     1.015614
      14App    1.024972    35Ap     1.046986    36Ap     1.153711
      37Ap     1.176666    15App    1.181260    38Ap     1.219571
      16App    1.270002    39Ap     1.274624    40Ap     1.334070
      17App    1.529014    41Ap     1.561698    18App    1.602494
      42Ap     1.715933    43Ap     1.822926    44Ap     1.832831
      45Ap     2.003137    19App    2.013734    46Ap     2.013935
      20App    2.052662    47Ap     2.065367    21App    2.169915
      22App    2.179531    48Ap     2.179678    49Ap     2.203514
      50Ap     2.226186    23App    2.248279    24App    2.295971
      51Ap     2.315534    52Ap     2.344293    53Ap     2.421870
      25App    2.450628    54Ap     2.461250    26App    2.532335
      55Ap     2.543369    56Ap     2.637119    57Ap     2.679517
      27App    2.730246    58Ap     2.757506    59Ap     2.870567
      28App    2.946317    60Ap     2.946523    61Ap     3.697833
      62Ap     3.895602    29App    4.034667    30App    4.145379
      63Ap     4.181045    64Ap     4.243225    31App    4.254374
      65Ap     4.294487    32App    4.300632    66Ap     4.391732
      33App    4.393281    34App    4.441316    67Ap     4.467683
      68Ap     4.576668    69Ap     4.783004    70Ap     4.961361
      35App    5.154513    71Ap     5.179416    72Ap     5.307335
      73Ap     5.373124    36App    5.525201    74Ap     5.691951
      75Ap     6.196323    37App    6.419239    76Ap     6.419266
      38App    6.448020    77Ap     6.450909    78Ap     6.533308
      39App    6.574529    79Ap     6.605473    80Ap     6.680251
      40App    6.728580    81Ap     6.913603    41App    7.004548
      82Ap     7.005507    42App    7.041888    83Ap     7.071200
      84Ap     7.129670    43App    7.149068    44App    7.274859
      85Ap     7.323829    45App    7.326798    86Ap     7.359501
      46App    7.441905    87Ap     7.659639    88Ap     7.948395
      89Ap     7.963659    90Ap     8.810297    91Ap     9.458306
      92Ap    16.521394

    Final Occupation by Irrep:
             Ap   App
    DOCC [     7,    1 ]
    SOCC [     1,    1 ]

  @UHF Final Energy:  -150.87437531576421

   => Energetics <=

    Nuclear Repulsion Energy =             22.8354923727934604
    One-Electron Energy =                -253.4551929931687937
    Two-Electron Energy =                  79.7453253046111286
    Total Energy =                       -150.8743753157642118

  UHF NO Occupations:
  HONO-2 :    7 Ap 1.9970296
  HONO-1 :    2App 1.0000000
  HONO-0 :    8 Ap 1.0000000
  LUNO+0 :    9 Ap 0.0029704
  LUNO+1 :   10 Ap 0.0017129
  LUNO+2 :   11 Ap 0.0000024
  LUNO+3 :   12 Ap 0.0000019

Computation Completed

Properties will be evaluated at   0.000000,   0.000000,   0.000000 [a0]

Properties computed using the SCF density matrix

  Nuclear Dipole Moment: [e a0]
     X:    -2.1910      Y:     0.8306      Z:     0.0000

  Electronic Dipole Moment: [e a0]
     X:     2.7554      Y:    -0.2137      Z:     0.0000

  Dipole Moment: [e a0]
     X:     0.5644      Y:     0.6170      Z:     0.0000     Total:     0.8362

  Dipole Moment: [D]
     X:     1.4345      Y:     1.5682      Z:     0.0000     Total:     2.1253

*** tstop() called on c5-7.compute.lan at Tue Mar  9 14:57:36 2021
Module time:
	user time   =      48.89 seconds =       0.81 minutes
	system time =       1.12 seconds =       0.02 minutes
	total time  =          7 seconds =       0.12 minutes
Total time:
	user time   =      48.89 seconds =       0.81 minutes
	system time =       1.12 seconds =       0.02 minutes
	total time  =          7 seconds =       0.12 minutes
 MINTS: Wrapper to libmints.
   by Justin Turney

   Calculation information:
      Number of threads:                12
      Number of atoms:                   4
      Number of AO shells:              46
      Number of SO shells:              46
      Number of primitives:             82
      Number of atomic orbitals:       160
      Number of basis functions:       138

      Number of irreps:                  2
      Integral cutoff                 0.00e+00
      Number of functions per irrep: [  92   46 ]

 OEINTS: Overlap, kinetic, potential, dipole, and quadrupole integrals
         stored in file 35.

      Computing two-electron integrals...done
      Computed 22950469 non-zero two-electron integrals.
        Stored in file 33.

*** tstart() called on c5-7.compute.lan
*** at Tue Mar  9 14:57:39 2021

	Wfn Parameters:
	--------------------
	Wavefunction         = CCSD_T
	Number of irreps     = 2
	Number of MOs        = 138
	Number of active MOs = 136
	AO-Basis             = NONE
	Semicanonical        = false
	Reference            = UHF
	Print Level          = 1

	IRREP	# MOs	# FZDC	# DOCC	# SOCC	# VIRT	# FZVR
	-----	-----	------	------	------	------	------
	 Ap	   92	    2	    5	    1	    84	    0
	 App	   46	    0	    1	    1	    44	    0
	Transforming integrals...
	IWL integrals will be deleted.
	(OO|OO)...
	Presorting SO-basis two-electron integrals.
	Sorting File: SO Ints (nn|nn) nbuckets = 1
	Transforming the one-electron integrals and constructing Fock matrices
	Starting AA/AB first half-transformation.
	Sorting AA/AB half-transformed integrals.
	Starting BB first half-transformation.
	Sorting BB half-transformed integrals.
	First half integral transformation complete.
	Starting AA second half-transformation.
	Starting AB second half-transformation.
	Starting BB second half-transformation.
	Two-electron integral transformation complete.
	(OO|OV)...
	Starting AA second half-transformation.
	Starting AB second half-transformation.
	Starting BB second half-transformation.
	Two-electron integral transformation complete.
	(OO|VV)...
	Starting AA second half-transformation.
	Starting AB second half-transformation.
	Starting BB second half-transformation.
	Two-electron integral transformation complete.
	(OV|OO)...
	Starting AA/AB first half-transformation.
	Sorting AA/AB half-transformed integrals.
	Starting BB first half-transformation.
	Sorting BB half-transformed integrals.
	First half integral transformation complete.
	Starting AA second half-transformation.
	Starting AB second half-transformation.
	Starting BB second half-transformation.
	Two-electron integral transformation complete.
	(OV|OV)...
	Starting AA second half-transformation.
	Starting AB second half-transformation.
	Starting BB second half-transformation.
	Two-electron integral transformation complete.
	(OV|VV)...
	Starting AA second half-transformation.
	Starting AB second half-transformation.
	Starting BB second half-transformation.
	Two-electron integral transformation complete.
	(VV|OO)...
	Starting AA/AB first half-transformation.
	Sorting AA/AB half-transformed integrals.
	Starting BB first half-transformation.
	Sorting BB half-transformed integrals.
	First half integral transformation complete.
	Starting AA second half-transformation.
	Starting AB second half-transformation.
	Starting BB second half-transformation.
	Two-electron integral transformation complete.
	(VV|OV)...
	Starting AA second half-transformation.
	Starting AB second half-transformation.
	Starting BB second half-transformation.
	Two-electron integral transformation complete.
	(VV|VV)...
	Starting AA second half-transformation.
	Starting AB second half-transformation.
	Starting BB second half-transformation.
	Two-electron integral transformation complete.
	Frozen core energy     =   -125.82191875694940

	Size of irrep 0 of <AB|CD> integrals:     19.643 (MW) /    157.141 (MB)
	Size of irrep 1 of <AB|CD> integrals:     13.660 (MW) /    109.283 (MB)
	Total:                                    33.303 (MW) /    266.424 (MB)

	Size of irrep 0 of <ab|cd> integrals:     20.794 (MW) /    166.349 (MB)
	Size of irrep 1 of <ab|cd> integrals:     14.631 (MW) /    117.045 (MB)
	Total:                                    35.424 (MW) /    283.394 (MB)

	Size of irrep 0 of <Ab|Cd> integrals:     83.174 (MW) /    665.395 (MB)
	Size of irrep 1 of <Ab|Cd> integrals:     56.550 (MW) /    452.403 (MB)
	Total:                                   139.725 (MW) /   1117.798 (MB)

	Size of irrep 0 of <IA|BC> integrals:      5.323 (MW) /     42.586 (MB)
	Size of irrep 1 of <IA|BC> integrals:      3.193 (MW) /     25.547 (MB)
	Total:                                     8.517 (MW) /     68.133 (MB)

	Size of irrep 0 of <ia|bc> integrals:      4.348 (MW) /     34.780 (MB)
	Size of irrep 1 of <ia|bc> integrals:      2.372 (MW) /     18.972 (MB)
	Total:                                     6.719 (MW) /     53.752 (MB)

	Size of irrep 0 of <Ia|Bc> integrals:      5.472 (MW) /     43.776 (MB)
	Size of irrep 1 of <Ia|Bc> integrals:      3.309 (MW) /     26.470 (MB)
	Total:                                     8.781 (MW) /     70.246 (MB)

	Size of irrep 0 of <iA|bC> integrals:      4.232 (MW) /     33.853 (MB)
	Size of irrep 1 of <iA|bC> integrals:      2.286 (MW) /     18.289 (MB)
	Total:                                     6.518 (MW) /     52.142 (MB)

	Size of irrep 0 of tIjAb amplitudes:       0.292 (MW) /      2.335 (MB)
	Size of irrep 1 of tIjAb amplitudes:       0.120 (MW) /      0.963 (MB)
	Total:                                     0.412 (MW) /      3.297 (MB)

	Nuclear Rep. energy          =     22.83549237279346
	SCF energy                   =   -150.87437531576421
	One-electron energy          =    -84.31964368910582
	Two-electron (AA) energy     =     10.12145911727261
	Two-electron (BB) energy     =      5.38537655275719
	Two-electron (AB) energy     =     20.92485908746595
	Two-electron energy          =     36.43169475749575
	Reference energy             =   -150.87437531576603

*** tstop() called on c5-7.compute.lan at Tue Mar  9 14:58:33 2021
Module time:
	user time   =     271.52 seconds =       4.53 minutes
	system time =      19.13 seconds =       0.32 minutes
	total time  =         54 seconds =       0.90 minutes
Total time:
	user time   =     325.43 seconds =       5.42 minutes
	system time =      20.86 seconds =       0.35 minutes
	total time  =         64 seconds =       1.07 minutes
            **************************
            *                        *
            *        CCENERGY        *
            *                        *
            **************************

    Nuclear Rep. energy (wfn)     =   22.835492372793460
    SCF energy          (wfn)     = -150.874375315764212
    Reference energy    (file100) = -150.874375315766031

    Input parameters:
    -----------------
    Wave function   =     CCSD_T
    Reference wfn   =     UHF
    Brueckner       =     No
    Memory (Mbytes) =     4000.0
    Maxiter         =     50
    R_Convergence   =     1.0e-10
    E_Convergence   =     1.0e-10
    Restart         =     Yes
    DIIS            =     Yes
    AO Basis        =     NONE
    ABCD            =     NEW
    Cache Level     =     2
    Cache Type      =     LRU
    Print Level     =     1
    Num. of threads =     12
    # Amps to Print =     10
    Print MP2 Amps? =     No
    Analyze T2 Amps =     No
    Print Pair Ener =     No
    Local CC        =     No
    SCS-MP2         =     False
    SCSN-MP2        =     False
    SCS-CCSD        =     False

MP2 correlation energy -0.4166175365484110
                Solving CC Amplitude Equations
                ------------------------------
  Iter             Energy              RMS        T1Diag      D1Diag    New D1Diag    D2Diag
  ----     ---------------------    ---------   ----------  ----------  ----------   --------
     0        -0.416617536548411    0.000e+00    0.000000    0.000000    0.000000    0.000000
     1        -0.427338201668664    5.687e-02    0.010544    0.000000    0.000000    0.000000
     2        -0.435436142196918    1.689e-02    0.011032    0.000000    0.000000    0.000000
     3        -0.437553957691240    8.574e-03    0.012903    0.000000    0.000000    0.000000
     4        -0.437428856448776    2.535e-03    0.013270    0.000000    0.000000    0.000000
     5        -0.437413815284781    1.326e-03    0.013427    0.000000    0.000000    0.000000
     6        -0.437441077009588    5.161e-04    0.013450    0.000000    0.000000    0.000000
     7        -0.437445886048920    2.671e-04    0.013445    0.000000    0.000000    0.000000
     8        -0.437446458074654    9.614e-05    0.013440    0.000000    0.000000    0.000000
     9        -0.437447863186677    6.882e-05    0.013441    0.000000    0.000000    0.000000
    10        -0.437446314881402    5.753e-05    0.013442    0.000000    0.000000    0.000000
    11        -0.437446440886104    5.432e-05    0.013443    0.000000    0.000000    0.000000
    12        -0.437446244516837    5.262e-05    0.013445    0.000000    0.000000    0.000000
    13        -0.437446230176012    5.167e-05    0.013447    0.000000    0.000000    0.000000
    14        -0.437447131713473    5.041e-05    0.013457    0.000000    0.000000    0.000000
    15        -0.437447461014088    4.612e-05    0.013501    0.000000    0.000000    0.000000
    16        -0.437447234450040    3.348e-05    0.013619    0.000000    0.000000    0.000000
    17        -0.437446944280415    1.707e-05    0.013691    0.000000    0.000000    0.000000
    18        -0.437446798654290    8.029e-06    0.013712    0.000000    0.000000    0.000000
    19        -0.437447045037955    3.528e-06    0.013718    0.000000    0.000000    0.000000
    20        -0.437447163333500    1.555e-06    0.013719    0.000000    0.000000    0.000000
    21        -0.437447169997317    6.185e-07    0.013719    0.000000    0.000000    0.000000
    22        -0.437447171011956    2.794e-07    0.013719    0.000000    0.000000    0.000000
    23        -0.437447170354282    1.401e-07    0.013719    0.000000    0.000000    0.000000
    24        -0.437447169595714    5.370e-08    0.013719    0.000000    0.000000    0.000000
    25        -0.437447170491233    2.657e-08    0.013719    0.000000    0.000000    0.000000
    26        -0.437447170919880    1.846e-08    0.013719    0.000000    0.000000    0.000000
    27        -0.437447171046164    1.676e-08    0.013719    0.000000    0.000000    0.000000
    28        -0.437447171025066    1.615e-08    0.013719    0.000000    0.000000    0.000000
    29        -0.437447170934841    1.574e-08    0.013719    0.000000    0.000000    0.000000
    30        -0.437447170754783    1.524e-08    0.013719    0.000000    0.000000    0.000000
    31        -0.437447170782983    1.375e-08    0.013719    0.000000    0.000000    0.000000
    32        -0.437447171021366    8.807e-09    0.013719    0.000000    0.000000    0.000000
    33        -0.437447171110269    4.086e-09    0.013719    0.000000    0.000000    0.000000
    34        -0.437447171166476    1.745e-09    0.013719    0.000000    0.000000    0.000000
    35        -0.437447171173552    6.858e-10    0.013719    0.000000    0.000000    0.000000
    36        -0.437447171172694    2.740e-10    0.013719    0.000000    0.000000    0.000000

      * MP2 total energy                      = -151.290992852314446
      * CCSD total energy                     = -151.311822486937928
      * CCSD(T) total energy                     = -151.324181905868357
*** Psi4 exiting successfully. Buy a developer a beer!
