                               Psi4 1.3.2 release

  ==> Input File <==

--------------------------------------------------------------------------
memory 4 GB

molecule  {
0 3
O   -1.504262787402   -0.001191536213    0.000000000000
H   -0.554379150402    0.156621815687    0.000000000000
H   -1.897018677986    0.877850096314    0.000000000000
O    1.658723136467   -0.063989598720    0.000000000000
}
set {
basis aug-cc-pvtz
reference uhf
e_convergence 10
scf_type pk
freeze_core true
}

set ccenergy {
e_convergence 10
r_convergence 10
}

e = energy('ccsd(t)')

print_out('Stephenergy {}'.format(e))

--------------------------------------------------------------------------

    Molecular point group: cs

    Geometry (in Angstrom), charge = 0, multiplicity = 3:

       Center              X                  Y                   Z               Mass
    ------------   -----------------  -----------------  -----------------  -----------------
         O           -1.504262787402    -0.001191536213     0.000000000000    15.994914619570
         H           -0.554379150402     0.156621815687     0.000000000000     1.007825032230
         H           -1.897018677986     0.877850096314     0.000000000000     1.007825032230
         O            1.658723136467    -0.063989598720     0.000000000000    15.994914619570

  Charge       = 0
  Multiplicity = 3
  Basis Set: AUG-CC-PVTZ
    Blend: AUG-CC-PVTZ

    Orbital Energies [Eh]
    ---------------------

    Alpha Occupied:

       1Ap   -20.733022     2Ap   -20.558846     3Ap    -1.442352
       4Ap    -1.342469     5Ap    -0.733125     1App   -0.732748
       6Ap    -0.710101     7Ap    -0.634390     8Ap    -0.574591
       2App   -0.501812

    Alpha Virtual:

       9Ap     0.034198    10Ap     0.053475    11Ap     0.128205
       3App    0.132947    12Ap     0.148137    13Ap     0.160730
      14Ap     0.183907     4App    0.186829    15Ap     0.214121
      16Ap     0.241987    17Ap     0.264184     5App    0.286430
      18Ap     0.304015     6App    0.320695    19Ap     0.364303
      20Ap     0.406275    21Ap     0.460213    22Ap     0.568687
       7App    0.602647    23Ap     0.608708    24Ap     0.627046
      25Ap     0.681828     8App    0.709382    26Ap     0.714809
       9App    0.736707    10App    0.748680    27Ap     0.750615
      28Ap     0.811486    11App    0.826043    29Ap     0.836873
      12App    0.890859    30Ap     0.891882    31Ap     0.922900
      32Ap     0.944975    13App    0.947888    33Ap     0.951191
      14App    0.971398    34Ap     0.978964    35Ap     1.042790
      36Ap     1.135990    15App    1.153347    37Ap     1.169881
      38Ap     1.185096    39Ap     1.260525    16App    1.295133
      40Ap     1.316395    17App    1.527025    41Ap     1.588126
      18App    1.597989    42Ap     1.715604    43Ap     1.809171
      44Ap     1.841843    45Ap     1.977198    19App    1.977767
      46Ap     1.978030    20App    2.013231    47Ap     2.017980
      21App    2.048361    48Ap     2.060568    22App    2.122581
      49Ap     2.152467    50Ap     2.175781    23App    2.212604
      24App    2.302585    51Ap     2.311032    52Ap     2.338656
      53Ap     2.414803    25App    2.441074    54Ap     2.457980
      55Ap     2.490637    26App    2.526487    56Ap     2.629538
      57Ap     2.709787    27App    2.727703    58Ap     2.736230
      59Ap     2.860104    60Ap     2.933771    28App    2.942842
      61Ap     3.694103    62Ap     3.891334    29App    4.034895
      30App    4.062749    63Ap     4.074298    31App    4.177314
      64Ap     4.209421    65Ap     4.263231    32App    4.303320
      33App    4.390768    66Ap     4.409281    34App    4.428962
      67Ap     4.445252    68Ap     4.601302    69Ap     4.776873
      70Ap     4.955298    35App    5.153958    71Ap     5.168059
      72Ap     5.298335    73Ap     5.387302    36App    5.522644
      74Ap     5.691481    75Ap     6.186475    37App    6.312407
      76Ap     6.312438    38App    6.375484    77Ap     6.378210
      39App    6.518112    78Ap     6.519894    79Ap     6.559715
      80Ap     6.637075    40App    6.735596    81Ap     6.814431
      41App    6.820065    82Ap     6.918670    42App    6.936864
      83Ap     6.960967    84Ap     7.050884    43App    7.147785
      44App    7.271022    45App    7.323586    85Ap     7.325762
      86Ap     7.363244    46App    7.435222    87Ap     7.645824
      88Ap     7.946207    89Ap     7.957365    90Ap     8.805310
      91Ap     9.515024    92Ap    16.281739

    Beta Occupied:

       1Ap   -20.654237     2Ap   -20.558975     3Ap    -1.343042
       4Ap    -1.099885     5Ap    -0.709302     6Ap    -0.579557
       7Ap    -0.541162     1App   -0.501856

    Beta Virtual:

       8Ap     0.034357     2App    0.049403     9Ap     0.049645
      10Ap     0.055178    11Ap     0.143825    12Ap     0.152974
       3App    0.161233    13Ap     0.177997    14Ap     0.207809
      15Ap     0.225539     4App    0.227227    16Ap     0.250692
      17Ap     0.265433     5App    0.286638    18Ap     0.306157
       6App    0.324429    19Ap     0.368201    20Ap     0.417134
      21Ap     0.461499    22Ap     0.572257    23Ap     0.627828
       7App    0.635043    24Ap     0.640423    25Ap     0.686626
      26Ap     0.715477     8App    0.721447     9App    0.739845
      10App    0.750392    27Ap     0.767056    28Ap     0.817880
      29Ap     0.867805    11App    0.868979    30Ap     0.919977
      12App    0.941676    31Ap     0.941777    13App    0.949957
      32Ap     0.952575    33Ap     0.970344    34Ap     1.017545
      14App    1.020090    35Ap     1.045058    15App    1.156471
      36Ap     1.163782    37Ap     1.173173    38Ap     1.216264
      39Ap     1.263756    16App    1.305738    40Ap     1.325037
      17App    1.527727    41Ap     1.590349    18App    1.599435
      42Ap     1.741891    43Ap     1.814400    44Ap     1.852729
      45Ap     1.985317    46Ap     2.015730    19App    2.015742
      20App    2.053686    47Ap     2.065359    21App    2.170733
      48Ap     2.175985    22App    2.179617    49Ap     2.193677
      50Ap     2.244540    23App    2.249818    24App    2.306029
      51Ap     2.316531    52Ap     2.361423    53Ap     2.419200
      25App    2.443791    54Ap     2.458815    55Ap     2.496937
      26App    2.534940    56Ap     2.636701    57Ap     2.726983
      27App    2.729016    58Ap     2.739430    59Ap     2.861942
      60Ap     2.938202    28App    2.943470    61Ap     3.694789
      62Ap     3.893684    29App    4.037750    30App    4.145938
      63Ap     4.194442    64Ap     4.243354    31App    4.262570
      65Ap     4.274806    32App    4.303372    33App    4.390837
      66Ap     4.412784    34App    4.429633    67Ap     4.489682
      68Ap     4.603894    69Ap     4.778515    70Ap     4.957304
      35App    5.153944    71Ap     5.168353    72Ap     5.298569
      73Ap     5.388534    36App    5.522704    74Ap     5.691826
      75Ap     6.187725    76Ap     6.421259    37App    6.421264
      38App    6.450676    77Ap     6.453443    78Ap     6.535290
      39App    6.571981    79Ap     6.600184    80Ap     6.682011
      40App    6.741542    81Ap     6.920253    41App    7.005169
      82Ap     7.006735    42App    7.046062    83Ap     7.068172
      84Ap     7.130663    43App    7.150323    44App    7.271242
      45App    7.324327    85Ap     7.326064    86Ap     7.364038
      46App    7.435633    87Ap     7.646683    88Ap     7.947159
      89Ap     7.957769    90Ap     8.806819    91Ap     9.590063
      92Ap    16.282010

    Final Occupation by Irrep:
             Ap   App
    DOCC [     7,    1 ]
    SOCC [     1,    1 ]

  @UHF Final Energy:  -150.87441187634207

   => Energetics <=

    Nuclear Repulsion Energy =             22.9003718925077138
    One-Electron Energy =                -253.5980953645876639
    Two-Electron Energy =                  79.8233115957378914
    Total Energy =                       -150.8744118763420659

  UHF NO Occupations:
  HONO-2 :    7 Ap 1.9970282
  HONO-1 :    2App 1.0000000
  HONO-0 :    8 Ap 1.0000000
  LUNO+0 :    9 Ap 0.0029718
  LUNO+1 :   10 Ap 0.0017160
  LUNO+2 :   11 Ap 0.0000024
  LUNO+3 :   12 Ap 0.0000017

Computation Completed

Properties will be evaluated at   0.000000,   0.000000,   0.000000 [a0]

Properties computed using the SCF density matrix

  Nuclear Dipole Moment: [e a0]
     X:    -2.2974      Y:     0.9695      Z:     0.0000

  Electronic Dipole Moment: [e a0]
     X:     2.7583      Y:    -0.2942      Z:     0.0000

  Dipole Moment: [e a0]
     X:     0.4610      Y:     0.6753      Z:     0.0000     Total:     0.8176

  Dipole Moment: [D]
     X:     1.1717      Y:     1.7164      Z:     0.0000     Total:     2.0782

*** tstop() called on d3-17.compute.lan at Tue Mar  9 15:52:08 2021
Module time:
	user time   =      53.06 seconds =       0.88 minutes
	system time =       2.23 seconds =       0.04 minutes
	total time  =          5 seconds =       0.08 minutes
Total time:
	user time   =      53.06 seconds =       0.88 minutes
	system time =       2.23 seconds =       0.04 minutes
	total time  =          5 seconds =       0.08 minutes
 MINTS: Wrapper to libmints.
   by Justin Turney

   Calculation information:
      Number of threads:                12
      Number of atoms:                   4
      Number of AO shells:              46
      Number of SO shells:              46
      Number of primitives:             82
      Number of atomic orbitals:       160
      Number of basis functions:       138

      Number of irreps:                  2
      Integral cutoff                 0.00e+00
      Number of functions per irrep: [  92   46 ]

 OEINTS: Overlap, kinetic, potential, dipole, and quadrupole integrals
         stored in file 35.

      Computing two-electron integrals...done
      Computed 22923967 non-zero two-electron integrals.
        Stored in file 33.

*** tstart() called on d3-17.compute.lan
*** at Tue Mar  9 15:52:13 2021

	Wfn Parameters:
	--------------------
	Wavefunction         = CCSD_T
	Number of irreps     = 2
	Number of MOs        = 138
	Number of active MOs = 136
	AO-Basis             = NONE
	Semicanonical        = false
	Reference            = UHF
	Print Level          = 1

	IRREP	# MOs	# FZDC	# DOCC	# SOCC	# VIRT	# FZVR
	-----	-----	------	------	------	------	------
	 Ap	   92	    2	    5	    1	    84	    0
	 App	   46	    0	    1	    1	    44	    0
	Transforming integrals...
	IWL integrals will be deleted.
	(OO|OO)...
	Presorting SO-basis two-electron integrals.
	Sorting File: SO Ints (nn|nn) nbuckets = 1
	Transforming the one-electron integrals and constructing Fock matrices
	Starting AA/AB first half-transformation.
	Sorting AA/AB half-transformed integrals.
	Starting BB first half-transformation.
	Sorting BB half-transformed integrals.
	First half integral transformation complete.
	Starting AA second half-transformation.
	Starting AB second half-transformation.
	Starting BB second half-transformation.
	Two-electron integral transformation complete.
	(OO|OV)...
	Starting AA second half-transformation.
	Starting AB second half-transformation.
	Starting BB second half-transformation.
	Two-electron integral transformation complete.
	(OO|VV)...
	Starting AA second half-transformation.
	Starting AB second half-transformation.
	Starting BB second half-transformation.
	Two-electron integral transformation complete.
	(OV|OO)...
	Starting AA/AB first half-transformation.
	Sorting AA/AB half-transformed integrals.
	Starting BB first half-transformation.
	Sorting BB half-transformed integrals.
	First half integral transformation complete.
	Starting AA second half-transformation.
	Starting AB second half-transformation.
	Starting BB second half-transformation.
	Two-electron integral transformation complete.
	(OV|OV)...
	Starting AA second half-transformation.
	Starting AB second half-transformation.
	Starting BB second half-transformation.
	Two-electron integral transformation complete.
	(OV|VV)...
	Starting AA second half-transformation.
	Starting AB second half-transformation.
	Starting BB second half-transformation.
	Two-electron integral transformation complete.
	(VV|OO)...
	Starting AA/AB first half-transformation.
	Sorting AA/AB half-transformed integrals.
	Starting BB first half-transformation.
	Sorting BB half-transformed integrals.
	First half integral transformation complete.
	Starting AA second half-transformation.
	Starting AB second half-transformation.
	Starting BB second half-transformation.
	Two-electron integral transformation complete.
	(VV|OV)...
	Starting AA second half-transformation.
	Starting AB second half-transformation.
	Starting BB second half-transformation.
	Two-electron integral transformation complete.
	(VV|VV)...
	Starting AA second half-transformation.
	Starting AB second half-transformation.
	Starting BB second half-transformation.
	Two-electron integral transformation complete.
	Frozen core energy     =   -125.85648827233825

	Size of irrep 0 of <AB|CD> integrals:     19.643 (MW) /    157.141 (MB)
	Size of irrep 1 of <AB|CD> integrals:     13.660 (MW) /    109.283 (MB)
	Total:                                    33.303 (MW) /    266.424 (MB)

	Size of irrep 0 of <ab|cd> integrals:     20.794 (MW) /    166.349 (MB)
	Size of irrep 1 of <ab|cd> integrals:     14.631 (MW) /    117.045 (MB)
	Total:                                    35.424 (MW) /    283.394 (MB)

	Size of irrep 0 of <Ab|Cd> integrals:     83.174 (MW) /    665.395 (MB)
	Size of irrep 1 of <Ab|Cd> integrals:     56.550 (MW) /    452.403 (MB)
	Total:                                   139.725 (MW) /   1117.798 (MB)

	Size of irrep 0 of <IA|BC> integrals:      5.323 (MW) /     42.586 (MB)
	Size of irrep 1 of <IA|BC> integrals:      3.193 (MW) /     25.547 (MB)
	Total:                                     8.517 (MW) /     68.133 (MB)

	Size of irrep 0 of <ia|bc> integrals:      4.348 (MW) /     34.780 (MB)
	Size of irrep 1 of <ia|bc> integrals:      2.372 (MW) /     18.972 (MB)
	Total:                                     6.719 (MW) /     53.752 (MB)

	Size of irrep 0 of <Ia|Bc> integrals:      5.472 (MW) /     43.776 (MB)
	Size of irrep 1 of <Ia|Bc> integrals:      3.309 (MW) /     26.470 (MB)
	Total:                                     8.781 (MW) /     70.246 (MB)

	Size of irrep 0 of <iA|bC> integrals:      4.232 (MW) /     33.853 (MB)
	Size of irrep 1 of <iA|bC> integrals:      2.286 (MW) /     18.289 (MB)
	Total:                                     6.518 (MW) /     52.142 (MB)

	Size of irrep 0 of tIjAb amplitudes:       0.292 (MW) /      2.335 (MB)
	Size of irrep 1 of tIjAb amplitudes:       0.120 (MW) /      0.963 (MB)
	Total:                                     0.412 (MW) /      3.297 (MB)

	Nuclear Rep. energy          =     22.90037189250771
	SCF energy                   =   -150.87441187634207
	One-electron energy          =    -84.39019937289540
	Two-electron (AA) energy     =     10.13566942689362
	Two-electron (BB) energy     =      5.39145124569936
	Two-electron (AB) energy     =     20.94478320378934
	Two-electron energy          =     36.47190387638232
	Reference energy             =   -150.87441187634363

*** tstop() called on d3-17.compute.lan at Tue Mar  9 15:52:51 2021
Module time:
	user time   =     230.88 seconds =       3.85 minutes
	system time =      17.85 seconds =       0.30 minutes
	total time  =         38 seconds =       0.63 minutes
Total time:
	user time   =     291.27 seconds =       4.85 minutes
	system time =      20.96 seconds =       0.35 minutes
	total time  =         48 seconds =       0.80 minutes
            **************************
            *                        *
            *        CCENERGY        *
            *                        *
            **************************

    Nuclear Rep. energy (wfn)     =   22.900371892507714
    SCF energy          (wfn)     = -150.874411876342066
    Reference energy    (file100) = -150.874411876343629

    Input parameters:
    -----------------
    Wave function   =     CCSD_T
    Reference wfn   =     UHF
    Brueckner       =     No
    Memory (Mbytes) =     4000.0
    Maxiter         =     50
    R_Convergence   =     1.0e-10
    E_Convergence   =     1.0e-10
    Restart         =     Yes
    DIIS            =     Yes
    AO Basis        =     NONE
    ABCD            =     NEW
    Cache Level     =     2
    Cache Type      =     LRU
    Print Level     =     1
    Num. of threads =     12
    # Amps to Print =     10
    Print MP2 Amps? =     No
    Analyze T2 Amps =     No
    Print Pair Ener =     No
    Local CC        =     No
    SCS-MP2         =     False
    SCSN-MP2        =     False
    SCS-CCSD        =     False

MP2 correlation energy -0.4166699949887102
                Solving CC Amplitude Equations
                ------------------------------
  Iter             Energy              RMS        T1Diag      D1Diag    New D1Diag    D2Diag
  ----     ---------------------    ---------   ----------  ----------  ----------   --------
     0        -0.416669994988710    0.000e+00    0.000000    0.000000    0.000000    0.000000
     1        -0.427371577010933    5.694e-02    0.010563    0.000000    0.000000    0.000000
     2        -0.435467646828593    1.691e-02    0.011040    0.000000    0.000000    0.000000
     3        -0.437593052533439    8.585e-03    0.012914    0.000000    0.000000    0.000000
     4        -0.437467197472183    2.537e-03    0.013281    0.000000    0.000000    0.000000
     5        -0.437452712345518    1.321e-03    0.013438    0.000000    0.000000    0.000000
     6        -0.437479937746159    5.152e-04    0.013460    0.000000    0.000000    0.000000
     7        -0.437484568691421    2.650e-04    0.013455    0.000000    0.000000    0.000000
     8        -0.437485173081820    9.975e-05    0.013450    0.000000    0.000000    0.000000
     9        -0.437486548379872    7.446e-05    0.013451    0.000000    0.000000    0.000000
    10        -0.437484986609062    6.434e-05    0.013452    0.000000    0.000000    0.000000
    11        -0.437485133294046    6.149e-05    0.013453    0.000000    0.000000    0.000000
    12        -0.437484843721623    5.980e-05    0.013456    0.000000    0.000000    0.000000
    13        -0.437484835621942    5.865e-05    0.013459    0.000000    0.000000    0.000000
    14        -0.437486015506930    5.676e-05    0.013477    0.000000    0.000000    0.000000
    15        -0.437486395245684    5.021e-05    0.013550    0.000000    0.000000    0.000000
    16        -0.437486171577474    3.355e-05    0.013691    0.000000    0.000000    0.000000
    17        -0.437485825736776    1.619e-05    0.013760    0.000000    0.000000    0.000000
    18        -0.437485695605871    7.597e-06    0.013778    0.000000    0.000000    0.000000
    19        -0.437485955203451    3.357e-06    0.013782    0.000000    0.000000    0.000000
    20        -0.437486066961316    1.504e-06    0.013783    0.000000    0.000000    0.000000
    21        -0.437486074897039    5.922e-07    0.013783    0.000000    0.000000    0.000000
    22        -0.437486076213571    2.808e-07    0.013783    0.000000    0.000000    0.000000
    23        -0.437486075121687    1.458e-07    0.013783    0.000000    0.000000    0.000000
    24        -0.437486074450219    6.050e-08    0.013783    0.000000    0.000000    0.000000
    25        -0.437486075416537    3.304e-08    0.013783    0.000000    0.000000    0.000000
    26        -0.437486075874807    2.564e-08    0.013783    0.000000    0.000000    0.000000
    27        -0.437486076032912    2.401e-08    0.013783    0.000000    0.000000    0.000000
    28        -0.437486075980986    2.326e-08    0.013783    0.000000    0.000000    0.000000
    29        -0.437486075816882    2.259e-08    0.013783    0.000000    0.000000    0.000000
    30        -0.437486075550518    2.149e-08    0.013783    0.000000    0.000000    0.000000
    31        -0.437486075749882    1.818e-08    0.013783    0.000000    0.000000    0.000000
    32        -0.437486076094291    9.530e-09    0.013784    0.000000    0.000000    0.000000
    33        -0.437486076196230    4.166e-09    0.013784    0.000000    0.000000    0.000000
    34        -0.437486076248298    1.704e-09    0.013784    0.000000    0.000000    0.000000
    35        -0.437486076255085    6.711e-10    0.013784    0.000000    0.000000    0.000000
    36        -0.437486076254820    2.872e-10    0.013784    0.000000    0.000000    0.000000

      * MP2 total energy                      = -151.291081871332352
      * CCSD total energy                     = -151.311897952597747
      * CCSD(T) total energy                     = -151.324260737032262
*** Psi4 exiting successfully. Buy a developer a beer!
