                               Psi4 1.3.2 release

  ==> Input File <==

--------------------------------------------------------------------------
memory 4 GB

molecule  {
0 3
O   -1.496507563314   -0.004847340589    0.000000000000
H   -0.546668406878    0.143188255657    0.000000000000
H   -1.875918518062    0.878193914189    0.000000000000
O    1.649152563539   -0.059509021588    0.000000000000
}
set {
basis aug-cc-pvtz
reference uhf
e_convergence 10
scf_type pk
freeze_core true
}

set ccenergy {
e_convergence 10
r_convergence 10
}

e = energy('ccsd(t)')

print_out('Stephenergy {}'.format(e))

--------------------------------------------------------------------------

    Molecular point group: cs

    Geometry (in Angstrom), charge = 0, multiplicity = 3:

       Center              X                  Y                   Z               Mass
    ------------   -----------------  -----------------  -----------------  -----------------
         O           -1.496507563314    -0.004847340589     0.000000000000    15.994914619570
         H           -0.546668406878     0.143188255657     0.000000000000     1.007825032230
         H           -1.875918518062     0.878193914189     0.000000000000     1.007825032230
         O            1.649152563539    -0.059509021588     0.000000000000    15.994914619570

  Charge       = 0
  Multiplicity = 3
  Basis Set: AUG-CC-PVTZ
    Blend: AUG-CC-PVTZ

    Orbital Energies [Eh]
    ---------------------

    Alpha Occupied:

       1Ap   -20.733539     2Ap   -20.558345     3Ap    -1.442937
       4Ap    -1.343235     5Ap    -0.733666     1App   -0.733282
       6Ap    -0.710523     7Ap    -0.634919     8Ap    -0.575019
       2App   -0.501764

    Alpha Virtual:

       9Ap     0.034270    10Ap     0.053461    11Ap     0.128010
       3App    0.132744    12Ap     0.148143    13Ap     0.160850
      14Ap     0.183941     4App    0.186983    15Ap     0.214447
      16Ap     0.242349    17Ap     0.265262     5App    0.286225
      18Ap     0.303308     6App    0.321334    19Ap     0.366070
      20Ap     0.406094    21Ap     0.460836    22Ap     0.567982
       7App    0.602210    23Ap     0.608704    24Ap     0.628725
      25Ap     0.680088     8App    0.711998    26Ap     0.714684
       9App    0.736639    10App    0.748497    27Ap     0.753789
      28Ap     0.813471    11App    0.825942    29Ap     0.837184
      12App    0.891031    30Ap     0.891189    31Ap     0.924204
      32Ap     0.946361    13App    0.947364    33Ap     0.952038
      14App    0.973710    34Ap     0.979505    35Ap     1.043858
      36Ap     1.133807    15App    1.157208    37Ap     1.170438
      38Ap     1.189194    39Ap     1.263578    16App    1.296833
      40Ap     1.321086    17App    1.528146    41Ap     1.585154
      18App    1.599370    42Ap     1.716518    43Ap     1.813155
      44Ap     1.844922    45Ap     1.977256    19App    1.977318
      46Ap     1.978676    20App    2.013148    47Ap     2.017916
      21App    2.050282    48Ap     2.062770    22App    2.125142
      49Ap     2.156263    50Ap     2.178582    23App    2.216499
      24App    2.303255    51Ap     2.312966    52Ap     2.341914
      53Ap     2.417029    25App    2.445577    54Ap     2.459353
      55Ap     2.498564    26App    2.531541    56Ap     2.639557
      57Ap     2.714089    27App    2.728202    58Ap     2.737989
      59Ap     2.862274    60Ap     2.933033    28App    2.944366
      61Ap     3.698920    62Ap     3.899119    29App    4.038077
      30App    4.063066    63Ap     4.074698    31App    4.180881
      64Ap     4.209768    65Ap     4.268698    32App    4.301491
      33App    4.392094    66Ap     4.405809    34App    4.432307
      67Ap     4.443766    68Ap     4.603106    69Ap     4.781342
      70Ap     4.963979    35App    5.157924    71Ap     5.175778
      72Ap     5.300133    73Ap     5.393675    36App    5.529192
      74Ap     5.692386    75Ap     6.191841    37App    6.311896
      76Ap     6.311928    38App    6.376128    77Ap     6.378945
      78Ap     6.522852    39App    6.523096    79Ap     6.561569
      80Ap     6.642234    40App    6.736079    81Ap     6.814163
      41App    6.819972    82Ap     6.925214    42App    6.937378
      83Ap     6.963625    84Ap     7.051671    43App    7.150056
      44App    7.273307    85Ap     7.326468    45App    7.329154
      86Ap     7.365841    46App    7.438061    87Ap     7.652682
      88Ap     7.947699    89Ap     7.966661    90Ap     8.816056
      91Ap     9.543731    92Ap    16.374916

    Beta Occupied:

       1Ap   -20.654754     2Ap   -20.558481     3Ap    -1.343843
       4Ap    -1.100485     5Ap    -0.709620     6Ap    -0.580397
       7Ap    -0.541435     1App   -0.501808

    Beta Virtual:

       8Ap     0.034382     2App    0.049044     9Ap     0.049228
      10Ap     0.055247    11Ap     0.144007    12Ap     0.152678
       3App    0.161158    13Ap     0.178249    14Ap     0.207924
      15Ap     0.225167     4App    0.226993    16Ap     0.251242
      17Ap     0.266532     5App    0.286439    18Ap     0.305465
       6App    0.325314    19Ap     0.370022    20Ap     0.417332
      21Ap     0.462119    22Ap     0.571626    23Ap     0.629210
       7App    0.634572    24Ap     0.640683    25Ap     0.684736
      26Ap     0.715302     8App    0.723885     9App    0.740012
      10App    0.750187    27Ap     0.771228    28Ap     0.819796
      29Ap     0.866168    11App    0.869427    30Ap     0.921021
      12App    0.942533    31Ap     0.943053    13App    0.949534
      32Ap     0.953422    33Ap     0.970187    34Ap     1.018812
      14App    1.020957    35Ap     1.046586    15App    1.160499
      36Ap     1.164121    37Ap     1.174877    38Ap     1.216060
      39Ap     1.266547    16App    1.307442    40Ap     1.330081
      17App    1.528867    41Ap     1.587673    18App    1.600891
      42Ap     1.741869    43Ap     1.819305    44Ap     1.856247
      45Ap     1.986353    46Ap     2.015286    19App    2.015291
      20App    2.055433    47Ap     2.067363    21App    2.174106
      48Ap     2.176405    22App    2.179709    49Ap     2.197039
      50Ap     2.247736    23App    2.252853    24App    2.306690
      51Ap     2.318654    52Ap     2.363635    53Ap     2.421322
      25App    2.448191    54Ap     2.460092    55Ap     2.504922
      26App    2.540019    56Ap     2.646649    57Ap     2.728155
      27App    2.729607    58Ap     2.745349    59Ap     2.864147
      60Ap     2.937238    28App    2.944986    61Ap     3.699601
      62Ap     3.901692    29App    4.040556    30App    4.149026
      63Ap     4.192267    64Ap     4.244832    31App    4.263667
      65Ap     4.281283    32App    4.301538    33App    4.392167
      66Ap     4.410481    34App    4.433020    67Ap     4.487745
      68Ap     4.605224    69Ap     4.782846    70Ap     4.966044
      35App    5.157915    71Ap     5.176139    72Ap     5.300384
      73Ap     5.394952    36App    5.529270    74Ap     5.692775
      75Ap     6.193090    76Ap     6.420748    37App    6.420752
      38App    6.451267    77Ap     6.454073    78Ap     6.534889
      39App    6.576890    79Ap     6.605482    80Ap     6.686893
      40App    6.742108    81Ap     6.927361    41App    7.005020
      82Ap     7.006785    42App    7.046679    83Ap     7.069849
      84Ap     7.131394    43App    7.152411    44App    7.273571
      85Ap     7.326773    45App    7.329882    86Ap     7.366547
      46App    7.438476    87Ap     7.653502    88Ap     7.948676
      89Ap     7.966971    90Ap     8.817749    91Ap     9.618595
      92Ap    16.375227

    Final Occupation by Irrep:
             Ap   App
    DOCC [     7,    1 ]
    SOCC [     1,    1 ]

  @UHF Final Energy:  -150.87447143768651

   => Energetics <=

    Nuclear Repulsion Energy =             23.0020793319836763
    One-Electron Energy =                -253.7950506057725590
    Two-Electron Energy =                  79.9184998361023702
    Total Energy =                       -150.8744714376865090

  UHF NO Occupations:
  HONO-2 :    7 Ap 1.9970276
  HONO-1 :    2App 1.0000000
  HONO-0 :    8 Ap 1.0000000
  LUNO+0 :    9 Ap 0.0029724
  LUNO+1 :   10 Ap 0.0017123
  LUNO+2 :   11 Ap 0.0000024
  LUNO+3 :   12 Ap 0.0000019

Computation Completed

Properties will be evaluated at   0.000000,   0.000000,   0.000000 [a0]

Properties computed using the SCF density matrix

  Nuclear Dipole Moment: [e a0]
     X:    -2.2704      Y:     0.9572      Z:     0.0000

  Electronic Dipole Moment: [e a0]
     X:     2.7430      Y:    -0.2854      Z:     0.0000

  Dipole Moment: [e a0]
     X:     0.4726      Y:     0.6718      Z:     0.0000     Total:     0.8214

  Dipole Moment: [D]
     X:     1.2013      Y:     1.7076      Z:     0.0000     Total:     2.0878

*** tstop() called on c5-3.compute.lan at Tue Mar  9 15:24:37 2021
Module time:
	user time   =      60.23 seconds =       1.00 minutes
	system time =       0.85 seconds =       0.01 minutes
	total time  =          6 seconds =       0.10 minutes
Total time:
	user time   =      60.23 seconds =       1.00 minutes
	system time =       0.85 seconds =       0.01 minutes
	total time  =          6 seconds =       0.10 minutes
 MINTS: Wrapper to libmints.
   by Justin Turney

   Calculation information:
      Number of threads:                12
      Number of atoms:                   4
      Number of AO shells:              46
      Number of SO shells:              46
      Number of primitives:             82
      Number of atomic orbitals:       160
      Number of basis functions:       138

      Number of irreps:                  2
      Integral cutoff                 0.00e+00
      Number of functions per irrep: [  92   46 ]

 OEINTS: Overlap, kinetic, potential, dipole, and quadrupole integrals
         stored in file 35.

      Computing two-electron integrals...done
      Computed 22938310 non-zero two-electron integrals.
        Stored in file 33.

*** tstart() called on c5-3.compute.lan
*** at Tue Mar  9 15:24:40 2021

	Wfn Parameters:
	--------------------
	Wavefunction         = CCSD_T
	Number of irreps     = 2
	Number of MOs        = 138
	Number of active MOs = 136
	AO-Basis             = NONE
	Semicanonical        = false
	Reference            = UHF
	Print Level          = 1

	IRREP	# MOs	# FZDC	# DOCC	# SOCC	# VIRT	# FZVR
	-----	-----	------	------	------	------	------
	 Ap	   92	    2	    5	    1	    84	    0
	 App	   46	    0	    1	    1	    44	    0
	Transforming integrals...
	IWL integrals will be deleted.
	(OO|OO)...
	Presorting SO-basis two-electron integrals.
	Sorting File: SO Ints (nn|nn) nbuckets = 1
	Transforming the one-electron integrals and constructing Fock matrices
	Starting AA/AB first half-transformation.
	Sorting AA/AB half-transformed integrals.
	Starting BB first half-transformation.
	Sorting BB half-transformed integrals.
	First half integral transformation complete.
	Starting AA second half-transformation.
	Starting AB second half-transformation.
	Starting BB second half-transformation.
	Two-electron integral transformation complete.
	(OO|OV)...
	Starting AA second half-transformation.
	Starting AB second half-transformation.
	Starting BB second half-transformation.
	Two-electron integral transformation complete.
	(OO|VV)...
	Starting AA second half-transformation.
	Starting AB second half-transformation.
	Starting BB second half-transformation.
	Two-electron integral transformation complete.
	(OV|OO)...
	Starting AA/AB first half-transformation.
	Sorting AA/AB half-transformed integrals.
	Starting BB first half-transformation.
	Sorting BB half-transformed integrals.
	First half integral transformation complete.
	Starting AA second half-transformation.
	Starting AB second half-transformation.
	Starting BB second half-transformation.
	Two-electron integral transformation complete.
	(OV|OV)...
	Starting AA second half-transformation.
	Starting AB second half-transformation.
	Starting BB second half-transformation.
	Two-electron integral transformation complete.
	(OV|VV)...
	Starting AA second half-transformation.
	Starting AB second half-transformation.
	Starting BB second half-transformation.
	Two-electron integral transformation complete.
	(VV|OO)...
	Starting AA/AB first half-transformation.
	Sorting AA/AB half-transformed integrals.
	Starting BB first half-transformation.
	Sorting BB half-transformed integrals.
	First half integral transformation complete.
	Starting AA second half-transformation.
	Starting AB second half-transformation.
	Starting BB second half-transformation.
	Two-electron integral transformation complete.
	(VV|OV)...
	Starting AA second half-transformation.
	Starting AB second half-transformation.
	Starting BB second half-transformation.
	Two-electron integral transformation complete.
	(VV|VV)...
	Starting AA second half-transformation.
	Starting AB second half-transformation.
	Starting BB second half-transformation.
	Two-electron integral transformation complete.
	Frozen core energy     =   -125.89276814406722

	Size of irrep 0 of <AB|CD> integrals:     19.643 (MW) /    157.141 (MB)
	Size of irrep 1 of <AB|CD> integrals:     13.660 (MW) /    109.283 (MB)
	Total:                                    33.303 (MW) /    266.424 (MB)

	Size of irrep 0 of <ab|cd> integrals:     20.794 (MW) /    166.349 (MB)
	Size of irrep 1 of <ab|cd> integrals:     14.631 (MW) /    117.045 (MB)
	Total:                                    35.424 (MW) /    283.394 (MB)

	Size of irrep 0 of <Ab|Cd> integrals:     83.174 (MW) /    665.395 (MB)
	Size of irrep 1 of <Ab|Cd> integrals:     56.550 (MW) /    452.403 (MB)
	Total:                                   139.725 (MW) /   1117.798 (MB)

	Size of irrep 0 of <IA|BC> integrals:      5.323 (MW) /     42.586 (MB)
	Size of irrep 1 of <IA|BC> integrals:      3.193 (MW) /     25.547 (MB)
	Total:                                     8.517 (MW) /     68.133 (MB)

	Size of irrep 0 of <ia|bc> integrals:      4.348 (MW) /     34.780 (MB)
	Size of irrep 1 of <ia|bc> integrals:      2.372 (MW) /     18.972 (MB)
	Total:                                     6.719 (MW) /     53.752 (MB)

	Size of irrep 0 of <Ia|Bc> integrals:      5.472 (MW) /     43.776 (MB)
	Size of irrep 1 of <Ia|Bc> integrals:      3.309 (MW) /     26.470 (MB)
	Total:                                     8.781 (MW) /     70.246 (MB)

	Size of irrep 0 of <iA|bC> integrals:      4.232 (MW) /     33.853 (MB)
	Size of irrep 1 of <iA|bC> integrals:      2.286 (MW) /     18.289 (MB)
	Total:                                     6.518 (MW) /     52.142 (MB)

	Size of irrep 0 of tIjAb amplitudes:       0.292 (MW) /      2.335 (MB)
	Size of irrep 1 of tIjAb amplitudes:       0.120 (MW) /      0.963 (MB)
	Total:                                     0.412 (MW) /      3.297 (MB)

	Nuclear Rep. energy          =     23.00207933198368
	SCF energy                   =   -150.87447143768651
	One-electron energy          =    -84.51463323165750
	Two-electron (AA) energy     =     10.15379321328800
	Two-electron (BB) energy     =      5.40179804046110
	Two-electron (AB) energy     =     20.97525935230542
	Two-electron energy          =     36.53085060605451
	Reference energy             =   -150.87447143768651

*** tstop() called on c5-3.compute.lan at Tue Mar  9 15:25:11 2021
Module time:
	user time   =     106.54 seconds =       1.78 minutes
	system time =      16.28 seconds =       0.27 minutes
	total time  =         31 seconds =       0.52 minutes
Total time:
	user time   =     173.33 seconds =       2.89 minutes
	system time =      17.69 seconds =       0.29 minutes
	total time  =         40 seconds =       0.67 minutes
            **************************
            *                        *
            *        CCENERGY        *
            *                        *
            **************************

    Nuclear Rep. energy (wfn)     =   23.002079331983676
    SCF energy          (wfn)     = -150.874471437686509
    Reference energy    (file100) = -150.874471437686509

    Input parameters:
    -----------------
    Wave function   =     CCSD_T
    Reference wfn   =     UHF
    Brueckner       =     No
    Memory (Mbytes) =     4000.0
    Maxiter         =     50
    R_Convergence   =     1.0e-10
    E_Convergence   =     1.0e-10
    Restart         =     Yes
    DIIS            =     Yes
    AO Basis        =     NONE
    ABCD            =     NEW
    Cache Level     =     2
    Cache Type      =     LRU
    Print Level     =     1
    Num. of threads =     12
    # Amps to Print =     10
    Print MP2 Amps? =     No
    Analyze T2 Amps =     No
    Print Pair Ener =     No
    Local CC        =     No
    SCS-MP2         =     False
    SCSN-MP2        =     False
    SCS-CCSD        =     False

MP2 correlation energy -0.4166051179239457
                Solving CC Amplitude Equations
                ------------------------------
  Iter             Energy              RMS        T1Diag      D1Diag    New D1Diag    D2Diag
  ----     ---------------------    ---------   ----------  ----------  ----------   --------
     0        -0.416605117923946    0.000e+00    0.000000    0.000000    0.000000    0.000000
     1        -0.427336053821568    5.686e-02    0.010552    0.000000    0.000000    0.000000
     2        -0.435418827253755    1.688e-02    0.011033    0.000000    0.000000    0.000000
     3        -0.437536917689951    8.575e-03    0.012906    0.000000    0.000000    0.000000
     4        -0.437411217586025    2.536e-03    0.013274    0.000000    0.000000    0.000000
     5        -0.437396408583369    1.327e-03    0.013432    0.000000    0.000000    0.000000
     6        -0.437423831500205    5.167e-04    0.013455    0.000000    0.000000    0.000000
     7        -0.437428526329438    2.691e-04    0.013451    0.000000    0.000000    0.000000
     8        -0.437429100344576    1.015e-04    0.013446    0.000000    0.000000    0.000000
     9        -0.437430488222812    7.555e-05    0.013448    0.000000    0.000000    0.000000
    10        -0.437428883941588    6.473e-05    0.013449    0.000000    0.000000    0.000000
    11        -0.437429042070242    6.158e-05    0.013450    0.000000    0.000000    0.000000
    12        -0.437428763856417    5.978e-05    0.013452    0.000000    0.000000    0.000000
    13        -0.437428764378058    5.866e-05    0.013456    0.000000    0.000000    0.000000
    14        -0.437429941912008    5.685e-05    0.013473    0.000000    0.000000    0.000000
    15        -0.437430329458518    5.038e-05    0.013545    0.000000    0.000000    0.000000
    16        -0.437430092769239    3.359e-05    0.013683    0.000000    0.000000    0.000000
    17        -0.437429738885291    1.617e-05    0.013752    0.000000    0.000000    0.000000
    18        -0.437429601930046    7.585e-06    0.013769    0.000000    0.000000    0.000000
    19        -0.437429858112834    3.368e-06    0.013773    0.000000    0.000000    0.000000
    20        -0.437429970956665    1.512e-06    0.013774    0.000000    0.000000    0.000000
    21        -0.437429979251040    6.054e-07    0.013774    0.000000    0.000000    0.000000
    22        -0.437429980785230    2.940e-07    0.013774    0.000000    0.000000    0.000000
    23        -0.437429979533404    1.542e-07    0.013774    0.000000    0.000000    0.000000
    24        -0.437429978674048    6.456e-08    0.013774    0.000000    0.000000    0.000000
    25        -0.437429979670124    3.540e-08    0.013774    0.000000    0.000000    0.000000
    26        -0.437429980152735    2.777e-08    0.013774    0.000000    0.000000    0.000000
    27        -0.437429980316191    2.614e-08    0.013774    0.000000    0.000000    0.000000
    28        -0.437429980257541    2.541e-08    0.013774    0.000000    0.000000    0.000000
    29        -0.437429980085782    2.478e-08    0.013774    0.000000    0.000000    0.000000
    30        -0.437429979800303    2.381e-08    0.013774    0.000000    0.000000    0.000000
    31        -0.437429979981690    2.073e-08    0.013774    0.000000    0.000000    0.000000
    32        -0.437429980359565    1.140e-08    0.013774    0.000000    0.000000    0.000000
    33        -0.437429980481353    5.057e-09    0.013774    0.000000    0.000000    0.000000
    34        -0.437429980546256    2.052e-09    0.013775    0.000000    0.000000    0.000000
    35        -0.437429980553616    7.595e-10    0.013775    0.000000    0.000000    0.000000
    36        -0.437429980554565    3.241e-10    0.013775    0.000000    0.000000    0.000000

      * MP2 total energy                      = -151.291076555610459
      * CCSD total energy                     = -151.311901418241376
      * CCSD(T) total energy                     = -151.324257099884193
*** Psi4 exiting successfully. Buy a developer a beer!
