                               Psi4 1.3.2 release

  ==> Input File <==

--------------------------------------------------------------------------
memory 4 GB

molecule  {
0 3
O   -1.504744251557   -0.001191842846    0.000000000000
H   -0.553951593525    0.154373842514    0.000000000000
H   -1.893806648132    0.878512130997    0.000000000000
O    1.658975273570   -0.063889363544    0.000000000000
}
set {
basis aug-cc-pvtz
reference uhf
e_convergence 10
scf_type pk
freeze_core true
}

set ccenergy {
e_convergence 10
r_convergence 10
}

e = energy('ccsd(t)')

print_out('Stephenergy {}'.format(e))

--------------------------------------------------------------------------

    Molecular point group: cs

    Geometry (in Angstrom), charge = 0, multiplicity = 3:

       Center              X                  Y                   Z               Mass
    ------------   -----------------  -----------------  -----------------  -----------------
         O           -1.504744251557    -0.001191842846     0.000000000000    15.994914619570
         H           -0.553951593525     0.154373842514     0.000000000000     1.007825032230
         H           -1.893806648132     0.878512130997     0.000000000000     1.007825032230
         O            1.658975273570    -0.063889363544     0.000000000000    15.994914619570

  Charge       = 0
  Multiplicity = 3
  Basis Set: AUG-CC-PVTZ
    Blend: AUG-CC-PVTZ

    Orbital Energies [Eh]
    ---------------------

    Alpha Occupied:

       1Ap   -20.733092     2Ap   -20.558824     3Ap    -1.442421
       4Ap    -1.342599     5Ap    -0.733187     1App   -0.732816
       6Ap    -0.710048     7Ap    -0.634477     8Ap    -0.574737
       2App   -0.501830

    Alpha Virtual:

       9Ap     0.034211    10Ap     0.053476    11Ap     0.128172
       3App    0.132915    12Ap     0.148132    13Ap     0.160754
      14Ap     0.183922     4App    0.186820    15Ap     0.214120
      16Ap     0.241947    17Ap     0.264359     5App    0.286396
      18Ap     0.303814     6App    0.320695    19Ap     0.364370
      20Ap     0.406079    21Ap     0.460377    22Ap     0.568555
       7App    0.602579    23Ap     0.608684    24Ap     0.627306
      25Ap     0.681577     8App    0.709519    26Ap     0.714726
       9App    0.736636    10App    0.748757    27Ap     0.751200
      28Ap     0.811526    11App    0.825987    29Ap     0.836901
      12App    0.890728    30Ap     0.891403    31Ap     0.922934
      32Ap     0.945045    13App    0.947659    33Ap     0.951267
      14App    0.971800    34Ap     0.978861    35Ap     1.043127
      36Ap     1.135639    15App    1.153869    37Ap     1.169871
      38Ap     1.185207    39Ap     1.261138    16App    1.294522
      40Ap     1.316481    17App    1.527198    41Ap     1.587141
      18App    1.597928    42Ap     1.715161    43Ap     1.809480
      44Ap     1.841757    45Ap     1.977480    19App    1.977700
      46Ap     1.978395    20App    2.013180    47Ap     2.017963
      21App    2.048460    48Ap     2.060799    22App    2.122675
      49Ap     2.153080    50Ap     2.175924    23App    2.212555
      24App    2.302652    51Ap     2.311035    52Ap     2.338347
      53Ap     2.414794    25App    2.441580    54Ap     2.458834
      55Ap     2.491279    26App    2.526269    56Ap     2.629136
      57Ap     2.709422    27App    2.727625    58Ap     2.736372
      59Ap     2.859995    60Ap     2.933178    28App    2.943258
      61Ap     3.695278    62Ap     3.891111    29App    4.035366
      30App    4.062720    63Ap     4.074169    31App    4.177314
      64Ap     4.208804    65Ap     4.264130    32App    4.302543
      33App    4.390874    66Ap     4.408295    34App    4.429392
      67Ap     4.444844    68Ap     4.601222    69Ap     4.778016
      70Ap     4.956635    35App    5.154252    71Ap     5.169402
      72Ap     5.298271    73Ap     5.387624    36App    5.523545
      74Ap     5.690765    75Ap     6.187551    37App    6.312337
      76Ap     6.312368    38App    6.375446    77Ap     6.378149
      39App    6.518263    78Ap     6.519917    79Ap     6.559604
      80Ap     6.637071    40App    6.735402    81Ap     6.814387
      41App    6.820006    82Ap     6.919661    42App    6.936772
      83Ap     6.961298    84Ap     7.050916    43App    7.147841
      44App    7.271574    45App    7.324146    85Ap     7.325446
      86Ap     7.363155    46App    7.435396    87Ap     7.646076
      88Ap     7.945174    89Ap     7.959007    90Ap     8.806919
      91Ap     9.513774    92Ap    16.288929

    Beta Occupied:

       1Ap   -20.654306     2Ap   -20.558954     3Ap    -1.343174
       4Ap    -1.099954     5Ap    -0.709240     6Ap    -0.579753
       7Ap    -0.541205     1App   -0.501875

    Beta Virtual:

       8Ap     0.034363     2App    0.049346     9Ap     0.049575
      10Ap     0.055195    11Ap     0.143846    12Ap     0.152936
       3App    0.161227    13Ap     0.178073    14Ap     0.207824
      15Ap     0.225422     4App    0.227185    16Ap     0.250683
      17Ap     0.265622     5App    0.286604    18Ap     0.305955
       6App    0.324433    19Ap     0.368266    20Ap     0.416968
      21Ap     0.461634    22Ap     0.572125    23Ap     0.628074
       7App    0.634975    24Ap     0.640423    25Ap     0.686346
      26Ap     0.715382     8App    0.721600     9App    0.739748
      10App    0.750463    27Ap     0.767781    28Ap     0.817907
      29Ap     0.867406    11App    0.868963    30Ap     0.919950
      12App    0.941718    31Ap     0.941864    13App    0.949782
      32Ap     0.952635    33Ap     0.970191    34Ap     1.017536
      14App    1.020215    35Ap     1.045413    15App    1.157017
      36Ap     1.163335    37Ap     1.173300    38Ap     1.216260
      39Ap     1.264313    16App    1.305124    40Ap     1.325174
      17App    1.527914    41Ap     1.589405    18App    1.599369
      42Ap     1.741545    43Ap     1.814801    44Ap     1.852447
      45Ap     1.986133    46Ap     2.015666    19App    2.015677
      20App    2.053754    47Ap     2.065539    21App    2.170839
      48Ap     2.176166    22App    2.179620    49Ap     2.194143
      50Ap     2.244647    23App    2.249781    24App    2.306039
      51Ap     2.316500    52Ap     2.360995    53Ap     2.419241
      25App    2.444275    54Ap     2.459654    55Ap     2.497593
      26App    2.534746    56Ap     2.636315    57Ap     2.726191
      27App    2.728936    58Ap     2.740034    59Ap     2.861818
      60Ap     2.937592    28App    2.943889    61Ap     3.695962
      62Ap     3.893481    29App    4.038210    30App    4.146035
      63Ap     4.193635    64Ap     4.243273    31App    4.262446
      65Ap     4.275843    32App    4.302595    33App    4.390944
      66Ap     4.411944    34App    4.430072    67Ap     4.489180
      68Ap     4.603749    69Ap     4.779661    70Ap     4.958641
      35App    5.154238    71Ap     5.169702    72Ap     5.298510
      73Ap     5.388843    36App    5.523605    74Ap     5.691112
      75Ap     6.188788    76Ap     6.421191    37App    6.421195
      38App    6.450646    77Ap     6.453377    78Ap     6.534988
      39App    6.572152    79Ap     6.600417    80Ap     6.682022
      40App    6.741308    81Ap     6.921428    41App    7.005130
      82Ap     7.006700    42App    7.045917    83Ap     7.068302
      84Ap     7.130681    43App    7.150414    44App    7.271817
      45App    7.324867    85Ap     7.325757    86Ap     7.363929
      46App    7.435808    87Ap     7.646935    88Ap     7.946073
      89Ap     7.959456    90Ap     8.808464    91Ap     9.588789
      92Ap    16.289204

    Final Occupation by Irrep:
             Ap   App
    DOCC [     7,    1 ]
    SOCC [     1,    1 ]

  @UHF Final Energy:  -150.87442294819618

   => Energetics <=

    Nuclear Repulsion Energy =             22.9010072143711021
    One-Electron Energy =                -253.5983692895473780
    Two-Electron Energy =                  79.8229391269800743
    Total Energy =                       -150.8744229481961838

  UHF NO Occupations:
  HONO-2 :    7 Ap 1.9970281
  HONO-1 :    8 Ap 1.0000000
  HONO-0 :    2App 1.0000000
  LUNO+0 :    9 Ap 0.0029719
  LUNO+1 :   10 Ap 0.0017161
  LUNO+2 :   11 Ap 0.0000024
  LUNO+3 :   12 Ap 0.0000017

Computation Completed

Properties will be evaluated at   0.000000,   0.000000,   0.000000 [a0]

Properties computed using the SCF density matrix

  Nuclear Dipole Moment: [e a0]
     X:    -2.2940      Y:     0.9680      Z:     0.0000

  Electronic Dipole Moment: [e a0]
     X:     2.7580      Y:    -0.2937      Z:     0.0000

  Dipole Moment: [e a0]
     X:     0.4640      Y:     0.6743      Z:     0.0000     Total:     0.8185

  Dipole Moment: [D]
     X:     1.1794      Y:     1.7139      Z:     0.0000     Total:     2.0805

*** tstop() called on d3-19.compute.lan at Wed Mar 10 10:57:18 2021
Module time:
	user time   =      49.59 seconds =       0.83 minutes
	system time =       2.63 seconds =       0.04 minutes
	total time  =          6 seconds =       0.10 minutes
Total time:
	user time   =      49.59 seconds =       0.83 minutes
	system time =       2.63 seconds =       0.04 minutes
	total time  =          6 seconds =       0.10 minutes
 MINTS: Wrapper to libmints.
   by Justin Turney

   Calculation information:
      Number of threads:                12
      Number of atoms:                   4
      Number of AO shells:              46
      Number of SO shells:              46
      Number of primitives:             82
      Number of atomic orbitals:       160
      Number of basis functions:       138

      Number of irreps:                  2
      Integral cutoff                 0.00e+00
      Number of functions per irrep: [  92   46 ]

 OEINTS: Overlap, kinetic, potential, dipole, and quadrupole integrals
         stored in file 35.

      Computing two-electron integrals...done
      Computed 22923309 non-zero two-electron integrals.
        Stored in file 33.

*** tstart() called on d3-19.compute.lan
*** at Wed Mar 10 10:57:23 2021

	Wfn Parameters:
	--------------------
	Wavefunction         = CCSD_T
	Number of irreps     = 2
	Number of MOs        = 138
	Number of active MOs = 136
	AO-Basis             = NONE
	Semicanonical        = false
	Reference            = UHF
	Print Level          = 1

	IRREP	# MOs	# FZDC	# DOCC	# SOCC	# VIRT	# FZVR
	-----	-----	------	------	------	------	------
	 Ap	   92	    2	    5	    1	    84	    0
	 App	   46	    0	    1	    1	    44	    0
	Transforming integrals...
	IWL integrals will be deleted.
	(OO|OO)...
	Presorting SO-basis two-electron integrals.
	Sorting File: SO Ints (nn|nn) nbuckets = 1
	Transforming the one-electron integrals and constructing Fock matrices
	Starting AA/AB first half-transformation.
	Sorting AA/AB half-transformed integrals.
	Starting BB first half-transformation.
	Sorting BB half-transformed integrals.
	First half integral transformation complete.
	Starting AA second half-transformation.
	Starting AB second half-transformation.
	Starting BB second half-transformation.
	Two-electron integral transformation complete.
	(OO|OV)...
	Starting AA second half-transformation.
	Starting AB second half-transformation.
	Starting BB second half-transformation.
	Two-electron integral transformation complete.
	(OO|VV)...
	Starting AA second half-transformation.
	Starting AB second half-transformation.
	Starting BB second half-transformation.
	Two-electron integral transformation complete.
	(OV|OO)...
	Starting AA/AB first half-transformation.
	Sorting AA/AB half-transformed integrals.
	Starting BB first half-transformation.
	Sorting BB half-transformed integrals.
	First half integral transformation complete.
	Starting AA second half-transformation.
	Starting AB second half-transformation.
	Starting BB second half-transformation.
	Two-electron integral transformation complete.
	(OV|OV)...
	Starting AA second half-transformation.
	Starting AB second half-transformation.
	Starting BB second half-transformation.
	Two-electron integral transformation complete.
	(OV|VV)...
	Starting AA second half-transformation.
	Starting AB second half-transformation.
	Starting BB second half-transformation.
	Two-electron integral transformation complete.
	(VV|OO)...
	Starting AA/AB first half-transformation.
	Sorting AA/AB half-transformed integrals.
	Starting BB first half-transformation.
	Sorting BB half-transformed integrals.
	First half integral transformation complete.
	Starting AA second half-transformation.
	Starting AB second half-transformation.
	Starting BB second half-transformation.
	Two-electron integral transformation complete.
	(VV|OV)...
	Starting AA second half-transformation.
	Starting AB second half-transformation.
	Starting BB second half-transformation.
	Two-electron integral transformation complete.
	(VV|VV)...
	Starting AA second half-transformation.
	Starting AB second half-transformation.
	Starting BB second half-transformation.
	Two-electron integral transformation complete.
	Frozen core energy     =   -125.85612236828271

	Size of irrep 0 of <AB|CD> integrals:     19.643 (MW) /    157.141 (MB)
	Size of irrep 1 of <AB|CD> integrals:     13.660 (MW) /    109.283 (MB)
	Total:                                    33.303 (MW) /    266.424 (MB)

	Size of irrep 0 of <ab|cd> integrals:     20.794 (MW) /    166.349 (MB)
	Size of irrep 1 of <ab|cd> integrals:     14.631 (MW) /    117.045 (MB)
	Total:                                    35.424 (MW) /    283.394 (MB)

	Size of irrep 0 of <Ab|Cd> integrals:     83.174 (MW) /    665.395 (MB)
	Size of irrep 1 of <Ab|Cd> integrals:     56.550 (MW) /    452.403 (MB)
	Total:                                   139.725 (MW) /   1117.798 (MB)

	Size of irrep 0 of <IA|BC> integrals:      5.323 (MW) /     42.586 (MB)
	Size of irrep 1 of <IA|BC> integrals:      3.193 (MW) /     25.547 (MB)
	Total:                                     8.517 (MW) /     68.133 (MB)

	Size of irrep 0 of <ia|bc> integrals:      4.348 (MW) /     34.780 (MB)
	Size of irrep 1 of <ia|bc> integrals:      2.372 (MW) /     18.972 (MB)
	Total:                                     6.719 (MW) /     53.752 (MB)

	Size of irrep 0 of <Ia|Bc> integrals:      5.472 (MW) /     43.776 (MB)
	Size of irrep 1 of <Ia|Bc> integrals:      3.309 (MW) /     26.470 (MB)
	Total:                                     8.781 (MW) /     70.246 (MB)

	Size of irrep 0 of <iA|bC> integrals:      4.232 (MW) /     33.853 (MB)
	Size of irrep 1 of <iA|bC> integrals:      2.286 (MW) /     18.289 (MB)
	Total:                                     6.518 (MW) /     52.142 (MB)

	Size of irrep 0 of tIjAb amplitudes:       0.292 (MW) /      2.335 (MB)
	Size of irrep 1 of tIjAb amplitudes:       0.120 (MW) /      0.963 (MB)
	Total:                                     0.412 (MW) /      3.297 (MB)

	Nuclear Rep. energy          =     22.90100721437110
	SCF energy                   =   -150.87442294819618
	One-electron energy          =    -84.39130045883917
	Two-electron (AA) energy     =     10.13555664689831
	Two-electron (BB) energy     =      5.39151161763731
	Two-electron (AB) energy     =     20.94492440001859
	Two-electron energy          =     36.47199266455421
	Reference energy             =   -150.87442294819658

*** tstop() called on d3-19.compute.lan at Wed Mar 10 10:58:08 2021
Module time:
	user time   =     267.36 seconds =       4.46 minutes
	system time =      21.08 seconds =       0.35 minutes
	total time  =         45 seconds =       0.75 minutes
Total time:
	user time   =     323.88 seconds =       5.40 minutes
	system time =      24.61 seconds =       0.41 minutes
	total time  =         56 seconds =       0.93 minutes
            **************************
            *                        *
            *        CCENERGY        *
            *                        *
            **************************

    Nuclear Rep. energy (wfn)     =   22.901007214371102
    SCF energy          (wfn)     = -150.874422948196184
    Reference energy    (file100) = -150.874422948196582

    Input parameters:
    -----------------
    Wave function   =     CCSD_T
    Reference wfn   =     UHF
    Brueckner       =     No
    Memory (Mbytes) =     4000.0
    Maxiter         =     50
    R_Convergence   =     1.0e-10
    E_Convergence   =     1.0e-10
    Restart         =     Yes
    DIIS            =     Yes
    AO Basis        =     NONE
    ABCD            =     NEW
    Cache Level     =     2
    Cache Type      =     LRU
    Print Level     =     1
    Num. of threads =     12
    # Amps to Print =     10
    Print MP2 Amps? =     No
    Analyze T2 Amps =     No
    Print Pair Ener =     No
    Local CC        =     No
    SCS-MP2         =     False
    SCSN-MP2        =     False
    SCS-CCSD        =     False

MP2 correlation energy -0.4166616616304117
                Solving CC Amplitude Equations
                ------------------------------
  Iter             Energy              RMS        T1Diag      D1Diag    New D1Diag    D2Diag
  ----     ---------------------    ---------   ----------  ----------  ----------   --------
     0        -0.416661661630412    0.000e+00    0.000000    0.000000    0.000000    0.000000
     1        -0.427365953003263    5.693e-02    0.010561    0.000000    0.000000    0.000000
     2        -0.435460694546805    1.691e-02    0.011039    0.000000    0.000000    0.000000
     3        -0.437585263761417    8.583e-03    0.012912    0.000000    0.000000    0.000000
     4        -0.437459406830151    2.537e-03    0.013280    0.000000    0.000000    0.000000
     5        -0.437444919072440    1.321e-03    0.013436    0.000000    0.000000    0.000000
     6        -0.437472146646944    5.152e-04    0.013458    0.000000    0.000000    0.000000
     7        -0.437476782092953    2.650e-04    0.013453    0.000000    0.000000    0.000000
     8        -0.437477385198944    9.961e-05    0.013448    0.000000    0.000000    0.000000
     9        -0.437478760758153    7.426e-05    0.013449    0.000000    0.000000    0.000000
    10        -0.437477199064900    6.409e-05    0.013450    0.000000    0.000000    0.000000
    11        -0.437477345770581    6.123e-05    0.013452    0.000000    0.000000    0.000000
    12        -0.437477058638030    5.954e-05    0.013454    0.000000    0.000000    0.000000
    13        -0.437477051432903    5.840e-05    0.013457    0.000000    0.000000    0.000000
    14        -0.437478222399162    5.653e-05    0.013475    0.000000    0.000000    0.000000
    15        -0.437478599843794    5.005e-05    0.013547    0.000000    0.000000    0.000000
    16        -0.437478376049498    3.352e-05    0.013687    0.000000    0.000000    0.000000
    17        -0.437478030812761    1.619e-05    0.013755    0.000000    0.000000    0.000000
    18        -0.437477900350120    7.597e-06    0.013773    0.000000    0.000000    0.000000
    19        -0.437478159565076    3.358e-06    0.013777    0.000000    0.000000    0.000000
    20        -0.437478271431735    1.504e-06    0.013778    0.000000    0.000000    0.000000
    21        -0.437478279384528    5.924e-07    0.013778    0.000000    0.000000    0.000000
    22        -0.437478280700052    2.810e-07    0.013778    0.000000    0.000000    0.000000
    23        -0.437478279610920    1.459e-07    0.013778    0.000000    0.000000    0.000000
    24        -0.437478278934550    6.047e-08    0.013779    0.000000    0.000000    0.000000
    25        -0.437478279899091    3.297e-08    0.013779    0.000000    0.000000    0.000000
    26        -0.437478280357669    2.555e-08    0.013779    0.000000    0.000000    0.000000
    27        -0.437478280515666    2.392e-08    0.013779    0.000000    0.000000    0.000000
    28        -0.437478280464276    2.317e-08    0.013779    0.000000    0.000000    0.000000
    29        -0.437478280301726    2.251e-08    0.013779    0.000000    0.000000    0.000000
    30        -0.437478280035774    2.143e-08    0.013779    0.000000    0.000000    0.000000
    31        -0.437478280229116    1.817e-08    0.013779    0.000000    0.000000    0.000000
    32        -0.437478280573247    9.575e-09    0.013779    0.000000    0.000000    0.000000
    33        -0.437478280675724    4.189e-09    0.013779    0.000000    0.000000    0.000000
    34        -0.437478280728245    1.712e-09    0.013779    0.000000    0.000000    0.000000
    35        -0.437478280735096    6.740e-10    0.013779    0.000000    0.000000    0.000000
    36        -0.437478280734842    2.884e-10    0.013779    0.000000    0.000000    0.000000

      * MP2 total energy                      = -151.291084609826981
      * CCSD total energy                     = -151.311901228930708
      * CCSD(T) total energy                     = -151.324262878348094
*** Psi4 exiting successfully. Buy a developer a beer!
