                               Psi4 1.3.2 release

  ==> Input File <==

--------------------------------------------------------------------------
memory 4 GB

molecule  {
0 3
O    0.000000000000    0.000000000000    1.269690199848
H    0.000000000000   -0.761693365832    1.859978330722
H   -0.000000000000    0.761693365832    1.859978330722
O    0.000000000000    0.000000000000   -1.504081287978
}
set {
basis aug-cc-pvtz
reference uhf
e_convergence 10
scf_type pk
freeze_core true
}

set ccenergy {
e_convergence 10
r_convergence 10
}

e = energy('ccsd(t)')

print_out('Stephenergy {}'.format(e))

--------------------------------------------------------------------------

    Molecular point group: c2v

    Geometry (in Angstrom), charge = 0, multiplicity = 3:

       Center              X                  Y                   Z               Mass
    ------------   -----------------  -----------------  -----------------  -----------------
         O            0.000000000000     0.000000000000     1.269690199848    15.994914619570
         H            0.000000000000    -0.761693365832     1.859978330722     1.007825032230
         H           -0.000000000000     0.761693365832     1.859978330722     1.007825032230
         O            0.000000000000     0.000000000000    -1.504081287978    15.994914619570

  Charge       = 0
  Multiplicity = 3
  Basis Set: AUG-CC-PVTZ
    Blend: AUG-CC-PVTZ

    Orbital Energies [Eh]
    ---------------------

    Alpha Occupied:

       1A1   -20.684498     2A1   -20.571533     3A1    -1.393916
       4A1    -1.354210     1B2    -0.717707     5A1    -0.688161
       1B1    -0.685222     2B2    -0.586231     6A1    -0.585966
       2B1    -0.513788

    Alpha Virtual:

       7A1     0.029530     3B2     0.047658     8A1     0.118614
       3B1     0.154122     9A1     0.159410     4B2     0.180210
       5B2     0.186946     4B1     0.192789    10A1     0.197928
       1A2     0.263675     6B2     0.263914    11A1     0.264742
      12A1     0.314370     5B1     0.326680    13A1     0.376062
       7B2     0.380267    14A1     0.449491     8B2     0.463944
       9B2     0.599987     6B1     0.643731    15A1     0.647344
       2A2     0.658161    16A1     0.666355    17A1     0.696402
       3A2     0.721711    10B2     0.722438     7B1     0.767583
      18A1     0.792757    19A1     0.818437     8B1     0.837525
      20A1     0.860430     9B1     0.901293    11B2     0.918559
       4A2     0.924435    12B2     0.945957    13B2     0.979319
      21A1     0.989473    10B1     1.012820    22A1     1.045809
      14B2     1.050760    11B1     1.121654     5A2     1.176154
      23A1     1.190910    15B2     1.198866    16B2     1.327381
      24A1     1.336597    25A1     1.443725     6A2     1.506587
      12B1     1.593012    26A1     1.667132    27A1     1.813517
      17B2     1.819862    18B2     1.974521    28A1     2.040730
      13B1     2.047726    19B2     2.054062     7A2     2.056821
      14B1     2.058879    29A1     2.078345    30A1     2.114887
       8A2     2.118724    20B2     2.135150    31A1     2.139032
      15B1     2.145079    32A1     2.251867    21B2     2.267187
      16B1     2.303453     9A2     2.311329    17B1     2.433719
      33A1     2.470346    22B2     2.482925    34A1     2.485388
      35A1     2.696122    18B1     2.716355    23B2     2.721871
      36A1     2.838711    24B2     2.862378    10A2     2.878949
      25B2     3.687427    37A1     3.750611    11A2     4.011232
      19B1     4.077298    20B1     4.099043    38A1     4.139857
      26B2     4.182815    27B2     4.277943    21B1     4.289012
      39A1     4.350337    12A2     4.380686    40A1     4.428260
      22B1     4.448915    28B2     4.513079    41A1     4.785659
      29B2     4.833181    30B2     5.136487    13A2     5.138732
      31B2     5.244787    42A1     5.331180    23B1     5.509298
      43A1     5.681109    44A1     6.194806    24B1     6.388892
      45A1     6.408895    14A2     6.410181    32B2     6.423613
      25B1     6.435501    33B2     6.485796    46A1     6.534655
      34B2     6.582612    26B1     6.715616    27B1     6.902351
      47A1     6.904898    15A2     6.924536    48A1     6.937696
      35B2     6.985710    49A1     7.046050    28B1     7.132548
      29B1     7.276266    16A2     7.300996    36B2     7.304391
      17A2     7.351750    50A1     7.436251    51A1     7.536385
      52A1     7.905977    37B2     7.908105    38B2     8.793150
      53A1     8.860959    54A1    15.705738

    Beta Occupied:

       1A1   -20.605632     2A1   -20.571070     3A1    -1.353516
       4A1    -1.051113     1B2    -0.717377     5A1    -0.587686
       1B1    -0.513126     2B2    -0.495650

    Beta Virtual:

       6A1     0.029367     3B2     0.047739     2B1     0.086531
       7A1     0.091928     8A1     0.140987     9A1     0.166979
       3B1     0.170719     4B2     0.180845     5B2     0.190528
      10A1     0.225418     4B1     0.253298     1A2     0.263678
       6B2     0.264362    11A1     0.288395    12A1     0.316749
       5B1     0.327982     7B2     0.380440    13A1     0.386436
      14A1     0.450587     8B2     0.464140     9B2     0.601600
      15A1     0.660161     6B1     0.667554     2A2     0.672575
      16A1     0.673679    17A1     0.713601     3A2     0.722182
      10B2     0.734645     7B1     0.778843    18A1     0.806144
       8B1     0.846695    19A1     0.849838     4A2     0.924822
      20A1     0.928227    11B2     0.936275    12B2     0.953004
      13B2     0.983091     9B1     0.986768    21A1     0.996460
      14B2     1.051885    22A1     1.052078    10B1     1.060448
      11B1     1.137750     5A2     1.176349    23A1     1.192385
      15B2     1.201615    16B2     1.329764    24A1     1.393282
      25A1     1.483157     6A2     1.507007    12B1     1.594984
      26A1     1.697189    27A1     1.818535    17B2     1.820191
      18B2     1.975876    28A1     2.070025    13B1     2.070840
      19B2     2.071496     7A2     2.081461    29A1     2.098204
      14B1     2.100094    30A1     2.154875    20B2     2.180873
       8A2     2.201942    31A1     2.207693    15B1     2.258169
      32A1     2.308701     9A2     2.311464    21B2     2.318974
      16B1     2.319287    17B1     2.441655    33A1     2.481949
      22B2     2.485834    34A1     2.515484    35A1     2.703203
      18B1     2.718045    23B2     2.722765    36A1     2.851045
      24B2     2.862562    10A2     2.878982    25B2     3.688297
      37A1     3.750745    11A2     4.011261    19B1     4.079417
      38A1     4.171754    26B2     4.217567    20B1     4.259303
      27B2     4.289669    21B1     4.294003    12A2     4.380792
      39A1     4.426680    22B1     4.454095    40A1     4.467695
      28B2     4.513157    41A1     4.796552    29B2     4.833337
      30B2     5.136663    13A2     5.138807    31B2     5.245194
      42A1     5.331819    23B1     5.509409    43A1     5.685609
      44A1     6.196401    24B1     6.485600    14A2     6.487011
      32B2     6.487782    45A1     6.493145    25B1     6.499100
      33B2     6.521620    46A1     6.606097    34B2     6.610332
      26B1     6.722570    47A1     6.952237    15A2     7.038087
      48A1     7.041954    27B1     7.084824    35B2     7.097568
      28B1     7.132979    49A1     7.173855    29B1     7.280447
      16A2     7.301251    36B2     7.304577    17A2     7.352175
      50A1     7.438977    51A1     7.537507    52A1     7.906542
      37B2     7.908455    38B2     8.793519    53A1     8.940373
      54A1    15.706056

    Final Occupation by Irrep:
             A1    A2    B1    B2
    DOCC [     5,    0,    1,    2 ]
    SOCC [     1,    0,    1,    0 ]

  @UHF Final Energy:  -150.87335141972878

   => Energetics <=

    Nuclear Repulsion Energy =             23.7981718296596156
    One-Electron Energy =                -255.6666450393677792
    Two-Electron Energy =                  80.9951217899793932
    Total Energy =                       -150.8733514197287491

  UHF NO Occupations:
  HONO-2 :    5 A1 1.9970492
  HONO-1 :    2 B1 1.0000000
  HONO-0 :    6 A1 1.0000000
  LUNO+0 :    7 A1 0.0029508
  LUNO+1 :    3 B2 0.0017951
  LUNO+2 :    8 A1 0.0000217
  LUNO+3 :    9 A1 0.0000024

Computation Completed

Properties will be evaluated at   0.000000,   0.000000,   0.000000 [a0]

Properties computed using the SCF density matrix

  Nuclear Dipole Moment: [e a0]
     X:     0.0000      Y:     0.0000      Z:     3.4862

  Electronic Dipole Moment: [e a0]
     X:     0.0000      Y:     0.0000      Z:    -2.6494

  Dipole Moment: [e a0]
     X:     0.0000      Y:     0.0000      Z:     0.8368     Total:     0.8368

  Dipole Moment: [D]
     X:     0.0000      Y:     0.0000      Z:     2.1270     Total:     2.1270

*** tstop() called on c4-2.compute.lan at Wed Mar 10 10:56:09 2021
Module time:
	user time   =      45.70 seconds =       0.76 minutes
	system time =       1.27 seconds =       0.02 minutes
	total time  =          5 seconds =       0.08 minutes
Total time:
	user time   =      45.70 seconds =       0.76 minutes
	system time =       1.27 seconds =       0.02 minutes
	total time  =          5 seconds =       0.08 minutes
 MINTS: Wrapper to libmints.
   by Justin Turney

   Calculation information:
      Number of threads:                12
      Number of atoms:                   4
      Number of AO shells:              46
      Number of SO shells:              37
      Number of primitives:             82
      Number of atomic orbitals:       160
      Number of basis functions:       138

      Number of irreps:                  4
      Integral cutoff                 0.00e+00
      Number of functions per irrep: [  54   17   29   38 ]

 OEINTS: Overlap, kinetic, potential, dipole, and quadrupole integrals
         stored in file 35.

      Computing two-electron integrals...done
      Computed 11524860 non-zero two-electron integrals.
        Stored in file 33.

*** tstart() called on c4-2.compute.lan
*** at Wed Mar 10 10:56:11 2021

	Wfn Parameters:
	--------------------
	Wavefunction         = CCSD_T
	Number of irreps     = 4
	Number of MOs        = 138
	Number of active MOs = 136
	AO-Basis             = NONE
	Semicanonical        = false
	Reference            = UHF
	Print Level          = 1

	IRREP	# MOs	# FZDC	# DOCC	# SOCC	# VIRT	# FZVR
	-----	-----	------	------	------	------	------
	 A1	   54	    2	    3	    1	    48	    0
	 A2	   17	    0	    0	    0	    17	    0
	 B1	   29	    0	    1	    1	    27	    0
	 B2	   38	    0	    2	    0	    36	    0
	Transforming integrals...
	IWL integrals will be deleted.
	(OO|OO)...
	Presorting SO-basis two-electron integrals.
	Sorting File: SO Ints (nn|nn) nbuckets = 1
	Transforming the one-electron integrals and constructing Fock matrices
	Starting AA/AB first half-transformation.
	Sorting AA/AB half-transformed integrals.
	Starting BB first half-transformation.
	Sorting BB half-transformed integrals.
	First half integral transformation complete.
	Starting AA second half-transformation.
	Starting AB second half-transformation.
	Starting BB second half-transformation.
	Two-electron integral transformation complete.
	(OO|OV)...
	Starting AA second half-transformation.
	Starting AB second half-transformation.
	Starting BB second half-transformation.
	Two-electron integral transformation complete.
	(OO|VV)...
	Starting AA second half-transformation.
	Starting AB second half-transformation.
	Starting BB second half-transformation.
	Two-electron integral transformation complete.
	(OV|OO)...
	Starting AA/AB first half-transformation.
	Sorting AA/AB half-transformed integrals.
	Starting BB first half-transformation.
	Sorting BB half-transformed integrals.
	First half integral transformation complete.
	Starting AA second half-transformation.
	Starting AB second half-transformation.
	Starting BB second half-transformation.
	Two-electron integral transformation complete.
	(OV|OV)...
	Starting AA second half-transformation.
	Starting AB second half-transformation.
	Starting BB second half-transformation.
	Two-electron integral transformation complete.
	(OV|VV)...
	Starting AA second half-transformation.
	Starting AB second half-transformation.
	Starting BB second half-transformation.
	Two-electron integral transformation complete.
	(VV|OO)...
	Starting AA/AB first half-transformation.
	Sorting AA/AB half-transformed integrals.
	Starting BB first half-transformation.
	Sorting BB half-transformed integrals.
	First half integral transformation complete.
	Starting AA second half-transformation.
	Starting AB second half-transformation.
	Starting BB second half-transformation.
	Two-electron integral transformation complete.
	(VV|OV)...
	Starting AA second half-transformation.
	Starting AB second half-transformation.
	Starting BB second half-transformation.
	Two-electron integral transformation complete.
	(VV|VV)...
	Starting AA second half-transformation.
	Starting AB second half-transformation.
	Starting BB second half-transformation.
	Two-electron integral transformation complete.
	Frozen core energy     =   -126.36281798308407

	Size of irrep 0 of <AB|CD> integrals:      5.040 (MW) /     40.320 (MB)
	Size of irrep 1 of <AB|CD> integrals:      3.197 (MW) /     25.576 (MB)
	Size of irrep 2 of <AB|CD> integrals:      3.640 (MW) /     29.124 (MB)
	Size of irrep 3 of <AB|CD> integrals:      4.783 (MW) /     38.264 (MB)
	Total:                                    16.660 (MW) /    133.283 (MB)

	Size of irrep 0 of <ab|cd> integrals:      5.382 (MW) /     43.059 (MB)
	Size of irrep 1 of <ab|cd> integrals:      3.389 (MW) /     27.114 (MB)
	Size of irrep 2 of <ab|cd> integrals:      3.936 (MW) /     31.490 (MB)
	Size of irrep 3 of <ab|cd> integrals:      5.018 (MW) /     40.141 (MB)
	Total:                                    17.726 (MW) /    141.804 (MB)

	Size of irrep 0 of <Ab|Cd> integrals:     22.024 (MW) /    176.194 (MB)
	Size of irrep 1 of <Ab|Cd> integrals:     13.170 (MW) /    105.357 (MB)
	Size of irrep 2 of <Ab|Cd> integrals:     15.140 (MW) /    121.119 (MB)
	Size of irrep 3 of <Ab|Cd> integrals:     19.598 (MW) /    156.787 (MB)
	Total:                                    69.932 (MW) /    559.457 (MB)

	Size of irrep 0 of <IA|BC> integrals:      1.469 (MW) /     11.748 (MB)
	Size of irrep 1 of <IA|BC> integrals:      0.694 (MW) /      5.550 (MB)
	Size of irrep 2 of <IA|BC> integrals:      0.908 (MW) /      7.266 (MB)
	Size of irrep 3 of <IA|BC> integrals:      1.198 (MW) /      9.588 (MB)
	Total:                                     4.269 (MW) /     34.152 (MB)

	Size of irrep 0 of <ia|bc> integrals:      1.178 (MW) /      9.426 (MB)
	Size of irrep 1 of <ia|bc> integrals:      0.527 (MW) /      4.212 (MB)
	Size of irrep 2 of <ia|bc> integrals:      0.663 (MW) /      5.301 (MB)
	Size of irrep 3 of <ia|bc> integrals:      0.999 (MW) /      7.992 (MB)
	Total:                                     3.366 (MW) /     26.931 (MB)

	Size of irrep 0 of <Ia|Bc> integrals:      1.521 (MW) /     12.164 (MB)
	Size of irrep 1 of <Ia|Bc> integrals:      0.711 (MW) /      5.690 (MB)
	Size of irrep 2 of <Ia|Bc> integrals:      0.949 (MW) /      7.595 (MB)
	Size of irrep 3 of <Ia|Bc> integrals:      1.222 (MW) /      9.775 (MB)
	Total:                                     4.403 (MW) /     35.225 (MB)

	Size of irrep 0 of <iA|bC> integrals:      1.140 (MW) /      9.123 (MB)
	Size of irrep 1 of <iA|bC> integrals:      0.512 (MW) /      4.094 (MB)
	Size of irrep 2 of <iA|bC> integrals:      0.634 (MW) /      5.074 (MB)
	Size of irrep 3 of <iA|bC> integrals:      0.978 (MW) /      7.827 (MB)
	Total:                                     3.265 (MW) /     26.118 (MB)

	Size of irrep 0 of tIjAb amplitudes:       0.084 (MW) /      0.676 (MB)
	Size of irrep 1 of tIjAb amplitudes:       0.022 (MW) /      0.174 (MB)
	Size of irrep 2 of tIjAb amplitudes:       0.039 (MW) /      0.311 (MB)
	Size of irrep 3 of tIjAb amplitudes:       0.062 (MW) /      0.496 (MB)
	Total:                                     0.207 (MW) /      1.657 (MB)

	Nuclear Rep. energy          =     23.79817182965962
	SCF energy                   =   -150.87335141972878
	One-electron energy          =    -85.37374126478267
	Two-electron (AA) energy     =     10.36037876176762
	Two-electron (BB) energy     =      5.46420182041523
	Two-electron (AB) energy     =     21.24045541629484
	Two-electron energy          =     37.06503599847770
	Reference energy             =   -150.87335141972943

*** tstop() called on c4-2.compute.lan at Wed Mar 10 10:56:33 2021
Module time:
	user time   =      64.32 seconds =       1.07 minutes
	system time =      10.66 seconds =       0.18 minutes
	total time  =         22 seconds =       0.37 minutes
Total time:
	user time   =     114.53 seconds =       1.91 minutes
	system time =      12.31 seconds =       0.21 minutes
	total time  =         29 seconds =       0.48 minutes
            **************************
            *                        *
            *        CCENERGY        *
            *                        *
            **************************

    Nuclear Rep. energy (wfn)     =   23.798171829659616
    SCF energy          (wfn)     = -150.873351419728778
    Reference energy    (file100) = -150.873351419729431

    Input parameters:
    -----------------
    Wave function   =     CCSD_T
    Reference wfn   =     UHF
    Brueckner       =     No
    Memory (Mbytes) =     4000.0
    Maxiter         =     50
    R_Convergence   =     1.0e-10
    E_Convergence   =     1.0e-10
    Restart         =     Yes
    DIIS            =     Yes
    AO Basis        =     NONE
    ABCD            =     NEW
    Cache Level     =     2
    Cache Type      =     LRU
    Print Level     =     1
    Num. of threads =     12
    # Amps to Print =     10
    Print MP2 Amps? =     No
    Analyze T2 Amps =     No
    Print Pair Ener =     No
    Local CC        =     No
    SCS-MP2         =     False
    SCSN-MP2        =     False
    SCS-CCSD        =     False

MP2 correlation energy -0.4164367729739774
                Solving CC Amplitude Equations
                ------------------------------
  Iter             Energy              RMS        T1Diag      D1Diag    New D1Diag    D2Diag
  ----     ---------------------    ---------   ----------  ----------  ----------   --------
     0        -0.416436772973977    0.000e+00    0.000000    0.000000    0.000000    0.000000
     1        -0.427169797242437    5.711e-02    0.010604    0.000000    0.000000    0.000000
     2        -0.435286737875824    1.708e-02    0.011095    0.000000    0.000000    0.000000
     3        -0.437447192464789    8.798e-03    0.013023    0.000000    0.000000    0.000000
     4        -0.437320694828142    2.684e-03    0.013432    0.000000    0.000000    0.000000
     5        -0.437311154510135    1.396e-03    0.013625    0.000000    0.000000    0.000000
     6        -0.437340188966165    5.305e-04    0.013652    0.000000    0.000000    0.000000
     7        -0.437343169329810    2.152e-04    0.013646    0.000000    0.000000    0.000000
     8        -0.437344119742128    6.695e-05    0.013641    0.000000    0.000000    0.000000
     9        -0.437344808131816    2.393e-05    0.013641    0.000000    0.000000    0.000000
    10        -0.437343905386892    9.241e-06    0.013640    0.000000    0.000000    0.000000
    11        -0.437344071905749    4.011e-06    0.013640    0.000000    0.000000    0.000000
    12        -0.437344031808642    1.450e-06    0.013640    0.000000    0.000000    0.000000
    13        -0.437344039836587    7.331e-07    0.013640    0.000000    0.000000    0.000000
    14        -0.437344062432733    3.065e-07    0.013640    0.000000    0.000000    0.000000
    15        -0.437344064072185    1.118e-07    0.013640    0.000000    0.000000    0.000000
    16        -0.437344064638677    5.026e-08    0.013640    0.000000    0.000000    0.000000
    17        -0.437344065213794    1.937e-08    0.013640    0.000000    0.000000    0.000000
    18        -0.437344065066936    1.011e-08    0.013640    0.000000    0.000000    0.000000

      * MP2 total energy                      = -151.289788192703412
      * CCSD total energy                     = -151.310695484546869
      * CCSD(T) total energy                     = -151.323009274822226
*** Psi4 exiting successfully. Buy a developer a beer!
