                               Psi4 1.3.2 release

  ==> Input File <==

--------------------------------------------------------------------------
memory 4 GB

molecule  {
0 3
O    0.000000000000    0.000000000000   -1.588267056134
H    0.000000000000   -0.752993714200   -0.990193248308
H   -0.000000000000    0.752993714200   -0.990193248308
O    0.000000000000    0.000000000000    1.713049409292
}
set {
basis aug-cc-pvtz
reference uhf
e_convergence 10
scf_type pk
freeze_core true
}

set ccenergy {
e_convergence 10
r_convergence 10
}

e = energy('ccsd(t)')

print_out('Stephenergy {}'.format(e))

--------------------------------------------------------------------------

    Molecular point group: c2v

    Geometry (in Angstrom), charge = 0, multiplicity = 3:

       Center              X                  Y                   Z               Mass
    ------------   -----------------  -----------------  -----------------  -----------------
         O           -0.000000000000     0.000000000000    -1.588267056134    15.994914619570
         H            0.000000000000    -0.752993714200    -0.990193248308     1.007825032230
         H           -0.000000000000     0.752993714200    -0.990193248308     1.007825032230
         O           -0.000000000000     0.000000000000     1.713049409292    15.994914619570

  Charge       = 0
  Multiplicity = 3
  Basis Set: AUG-CC-PVTZ
    Blend: AUG-CC-PVTZ

    Orbital Energies [Eh]
    ---------------------

    Alpha Occupied:

       1A1   -20.730081     2A1   -20.562304     3A1    -1.439268
       4A1    -1.346477     1B2    -0.730710     1B1    -0.730191
       2B2    -0.706871     5A1    -0.634430     6A1    -0.579359
       2B1    -0.504738

    Alpha Virtual:

       7A1     0.035697     3B2     0.048570     3B1     0.131726
       8A1     0.133767     9A1     0.149572     4B2     0.158547
       4B1     0.182581     5B2     0.185186    10A1     0.189878
      11A1     0.255010     6B2     0.259797     1A2     0.265950
      12A1     0.274055     5B1     0.321941    13A1     0.372824
       7B2     0.383670    14A1     0.454273     8B2     0.472790
       2A2     0.609681     9B2     0.621248    15A1     0.621668
      16A1     0.625180     6B1     0.643543    17A1     0.717700
       3A2     0.731313    10B2     0.740111     7B1     0.747799
      18A1     0.798571     8B1     0.836146    19A1     0.844404
      11B2     0.851577     9B1     0.916955     4A2     0.937897
      12B2     0.942439    20A1     0.945828    21A1     0.960251
      10B1     0.973319    13B2     0.978496    22A1     1.051382
      14B2     1.056233    11B1     1.134769     5A2     1.188291
      23A1     1.191232    24A1     1.263531    15B2     1.271296
      16B2     1.283675    25A1     1.369851     6A2     1.510916
      12B1     1.590672    26A1     1.669438    27A1     1.830941
      17B2     1.836526    18B2     1.970250    13B1     1.977715
      19B2     1.996683    28A1     2.005225     7A2     2.013810
      14B1     2.029633    29A1     2.039050     8A2     2.047632
      30A1     2.090967    20B2     2.092652    15B1     2.130483
      31A1     2.165586    16B1     2.286905    21B2     2.287193
       9A2     2.333844    32A1     2.367213    33A1     2.404733
      34A1     2.488652    22B2     2.502413    17B1     2.523080
      35A1     2.580344    23B2     2.691394    18B1     2.721290
      36A1     2.825374    10A2     2.889947    24B2     2.910883
      25B2     3.669163    37A1     3.751455    11A2     4.035431
      19B1     4.051689    26B2     4.094959    20B1     4.106243
      38A1     4.173116    27B2     4.279617    21B1     4.280536
      39A1     4.358691    12A2     4.384663    22B1     4.418584
      40A1     4.438702    28B2     4.532893    41A1     4.754876
      29B2     4.856365    13A2     5.149890    30B2     5.169050
      31B2     5.249348    42A1     5.374965    23B1     5.529805
      43A1     5.675523    44A1     6.203245    24B1     6.314182
      32B2     6.315490    14A2     6.374233    45A1     6.381818
      25B1     6.406882    33B2     6.466967    46A1     6.493784
      34B2     6.531764    26B1     6.748443    15A2     6.819968
      47A1     6.821655    48A1     6.932678    27B1     6.933367
      35B2     6.966219    49A1     7.036918    28B1     7.137271
      29B1     7.262497    16A2     7.319653    36B2     7.350938
      17A2     7.358838    50A1     7.365935    51A1     7.553799
      52A1     7.896997    37B2     7.940826    53A1     8.599057
      38B2     8.816232    54A1    15.742808

    Beta Occupied:

       1A1   -20.651537     2A1   -20.562354     3A1    -1.346721
       4A1    -1.097040     1B2    -0.707084     5A1    -0.585527
       6A1    -0.538849     1B1    -0.504716

    Beta Virtual:

       2B2     0.034601     7A1     0.036867     2B1     0.049095
       3B2     0.069605     8A1     0.139782     9A1     0.152063
       3B1     0.160691     4B2     0.180369    10A1     0.190224
       5B2     0.223692     4B1     0.225670    11A1     0.264029
       6B2     0.264036     1A2     0.266350    12A1     0.276030
       5B1     0.322865    13A1     0.376269     7B2     0.389786
      14A1     0.455595     8B2     0.473271     9B2     0.623346
      15A1     0.627179     2A2     0.641757    16A1     0.653997
       6B1     0.654984    17A1     0.718919     3A2     0.732643
       7B1     0.750565    10B2     0.752016    18A1     0.811128
      19A1     0.852380     8B1     0.911341     9B1     0.933901
       4A2     0.939738    11B2     0.941095    12B2     0.947741
      20A1     0.951684    21A1     0.961447    13B2     1.017995
      10B1     1.029754    22A1     1.052202    14B2     1.060233
      11B1     1.142384     5A2     1.189127    23A1     1.195298
      15B2     1.272153    24A1     1.294883    16B2     1.300393
      25A1     1.411854     6A2     1.511094    12B1     1.590856
      26A1     1.684866    27A1     1.832596    17B2     1.837807
      18B2     1.981022    13B1     2.015630    19B2     2.024498
      28A1     2.030351     7A2     2.049945    14B1     2.051922
      29A1     2.101773    20B2     2.141576    30A1     2.172481
       8A2     2.183523    15B1     2.195517    31A1     2.207873
      16B1     2.293089    21B2     2.327319     9A2     2.337593
      32A1     2.380903    33A1     2.420161    34A1     2.492093
      22B2     2.508388    17B1     2.527939    35A1     2.582663
      23B2     2.691647    18B1     2.721412    36A1     2.825908
      10A2     2.889986    24B2     2.912858    25B2     3.669274
      37A1     3.751560    11A2     4.035543    19B1     4.104278
      38A1     4.185971    20B1     4.225446    26B2     4.249209
      21B1     4.280670    27B2     4.294575    39A1     4.372096
      12A2     4.384724    22B1     4.418937    40A1     4.459949
      28B2     4.533415    41A1     4.755242    29B2     4.856592
      13A2     5.149919    30B2     5.169059    31B2     5.249403
      42A1     5.375445    23B1     5.529808    43A1     5.675864
      44A1     6.206173    24B1     6.422979    32B2     6.424088
      14A2     6.450826    45A1     6.455960    25B1     6.461662
      33B2     6.503295    46A1     6.541707    34B2     6.552102
      26B1     6.755600    47A1     6.934010    15A2     7.008830
      48A1     7.011428    27B1     7.039774    35B2     7.075167
      49A1     7.115932    28B1     7.137981    29B1     7.262464
      16A2     7.319700    36B2     7.352583    17A2     7.358924
      50A1     7.367061    51A1     7.554909    52A1     7.897217
      37B2     7.940808    53A1     8.682823    38B2     8.816149
      54A1    15.742804

    Final Occupation by Irrep:
             A1    A2    B1    B2
    DOCC [     6,    0,    1,    1 ]
    SOCC [     0,    0,    1,    1 ]

  @UHF Final Energy:  -150.87332012379801

   => Energetics <=

    Nuclear Repulsion Energy =             22.4322180543226501
    One-Electron Energy =                -252.6528210891912067
    Two-Electron Energy =                  79.3472829110705504
    Total Energy =                       -150.8733201237980097

  UHF NO Occupations:
  HONO-2 :    6 A1 1.9970765
  HONO-1 :    2 B1 1.0000000
  HONO-0 :    2 B2 1.0000000
  LUNO+0 :    7 A1 0.0029235
  LUNO+1 :    8 A1 0.0016677
  LUNO+2 :    9 A1 0.0000024
  LUNO+3 :   10 A1 0.0000007

Computation Completed

Properties will be evaluated at   0.000000,   0.000000,   0.000000 [a0]

Properties computed using the SCF density matrix

  Nuclear Dipole Moment: [e a0]
     X:    -0.0000      Y:     0.0000      Z:    -1.8560

  Electronic Dipole Moment: [e a0]
     X:     0.0000      Y:     0.0000      Z:     2.6960

  Dipole Moment: [e a0]
     X:    -0.0000      Y:     0.0000      Z:     0.8400     Total:     0.8400

  Dipole Moment: [D]
     X:    -0.0000      Y:     0.0000      Z:     2.1351     Total:     2.1351

*** tstop() called on c1-11.compute.lan at Wed Mar 10 09:36:56 2021
Module time:
	user time   =      45.75 seconds =       0.76 minutes
	system time =       2.55 seconds =       0.04 minutes
	total time  =          6 seconds =       0.10 minutes
Total time:
	user time   =      45.75 seconds =       0.76 minutes
	system time =       2.55 seconds =       0.04 minutes
	total time  =          6 seconds =       0.10 minutes
 MINTS: Wrapper to libmints.
   by Justin Turney

   Calculation information:
      Number of threads:                12
      Number of atoms:                   4
      Number of AO shells:              46
      Number of SO shells:              37
      Number of primitives:             82
      Number of atomic orbitals:       160
      Number of basis functions:       138

      Number of irreps:                  4
      Integral cutoff                 0.00e+00
      Number of functions per irrep: [  54   17   29   38 ]

 OEINTS: Overlap, kinetic, potential, dipole, and quadrupole integrals
         stored in file 35.

      Computing two-electron integrals...done
      Computed 11530789 non-zero two-electron integrals.
        Stored in file 33.

*** tstart() called on c1-11.compute.lan
*** at Wed Mar 10 09:36:58 2021

	Wfn Parameters:
	--------------------
	Wavefunction         = CCSD_T
	Number of irreps     = 4
	Number of MOs        = 138
	Number of active MOs = 136
	AO-Basis             = NONE
	Semicanonical        = false
	Reference            = UHF
	Print Level          = 1

	IRREP	# MOs	# FZDC	# DOCC	# SOCC	# VIRT	# FZVR
	-----	-----	------	------	------	------	------
	 A1	   54	    2	    4	    0	    48	    0
	 A2	   17	    0	    0	    0	    17	    0
	 B1	   29	    0	    1	    1	    27	    0
	 B2	   38	    0	    1	    1	    36	    0
	Transforming integrals...
	IWL integrals will be deleted.
	(OO|OO)...
	Presorting SO-basis two-electron integrals.
	Sorting File: SO Ints (nn|nn) nbuckets = 1
	Transforming the one-electron integrals and constructing Fock matrices
	Starting AA/AB first half-transformation.
	Sorting AA/AB half-transformed integrals.
	Starting BB first half-transformation.
	Sorting BB half-transformed integrals.
	First half integral transformation complete.
	Starting AA second half-transformation.
	Starting AB second half-transformation.
	Starting BB second half-transformation.
	Two-electron integral transformation complete.
	(OO|OV)...
	Starting AA second half-transformation.
	Starting AB second half-transformation.
	Starting BB second half-transformation.
	Two-electron integral transformation complete.
	(OO|VV)...
	Starting AA second half-transformation.
	Starting AB second half-transformation.
	Starting BB second half-transformation.
	Two-electron integral transformation complete.
	(OV|OO)...
	Starting AA/AB first half-transformation.
	Sorting AA/AB half-transformed integrals.
	Starting BB first half-transformation.
	Sorting BB half-transformed integrals.
	First half integral transformation complete.
	Starting AA second half-transformation.
	Starting AB second half-transformation.
	Starting BB second half-transformation.
	Two-electron integral transformation complete.
	(OV|OV)...
	Starting AA second half-transformation.
	Starting AB second half-transformation.
	Starting BB second half-transformation.
	Two-electron integral transformation complete.
	(OV|VV)...
	Starting AA second half-transformation.
	Starting AB second half-transformation.
	Starting BB second half-transformation.
	Two-electron integral transformation complete.
	(VV|OO)...
	Starting AA/AB first half-transformation.
	Sorting AA/AB half-transformed integrals.
	Starting BB first half-transformation.
	Sorting BB half-transformed integrals.
	First half integral transformation complete.
	Starting AA second half-transformation.
	Starting AB second half-transformation.
	Starting BB second half-transformation.
	Two-electron integral transformation complete.
	(VV|OV)...
	Starting AA second half-transformation.
	Starting AB second half-transformation.
	Starting BB second half-transformation.
	Two-electron integral transformation complete.
	(VV|VV)...
	Starting AA second half-transformation.
	Starting AB second half-transformation.
	Starting BB second half-transformation.
	Two-electron integral transformation complete.
	Frozen core energy     =   -125.65473774002056

	Size of irrep 0 of <AB|CD> integrals:      5.040 (MW) /     40.320 (MB)
	Size of irrep 1 of <AB|CD> integrals:      3.197 (MW) /     25.576 (MB)
	Size of irrep 2 of <AB|CD> integrals:      3.640 (MW) /     29.124 (MB)
	Size of irrep 3 of <AB|CD> integrals:      4.783 (MW) /     38.264 (MB)
	Total:                                    16.660 (MW) /    133.283 (MB)

	Size of irrep 0 of <ab|cd> integrals:      5.327 (MW) /     42.615 (MB)
	Size of irrep 1 of <ab|cd> integrals:      3.430 (MW) /     27.439 (MB)
	Size of irrep 2 of <ab|cd> integrals:      3.893 (MW) /     31.142 (MB)
	Size of irrep 3 of <ab|cd> integrals:      5.072 (MW) /     40.572 (MB)
	Total:                                    17.721 (MW) /    141.768 (MB)

	Size of irrep 0 of <Ab|Cd> integrals:     21.912 (MW) /    175.294 (MB)
	Size of irrep 1 of <Ab|Cd> integrals:     13.242 (MW) /    105.939 (MB)
	Size of irrep 2 of <Ab|Cd> integrals:     15.062 (MW) /    120.497 (MB)
	Size of irrep 3 of <Ab|Cd> integrals:     19.705 (MW) /    157.638 (MB)
	Total:                                    69.921 (MW) /    559.368 (MB)

	Size of irrep 0 of <IA|BC> integrals:      1.469 (MW) /     11.748 (MB)
	Size of irrep 1 of <IA|BC> integrals:      0.694 (MW) /      5.550 (MB)
	Size of irrep 2 of <IA|BC> integrals:      0.908 (MW) /      7.266 (MB)
	Size of irrep 3 of <IA|BC> integrals:      1.198 (MW) /      9.588 (MB)
	Total:                                     4.269 (MW) /     34.152 (MB)

	Size of irrep 0 of <ia|bc> integrals:      1.220 (MW) /      9.758 (MB)
	Size of irrep 1 of <ia|bc> integrals:      0.493 (MW) /      3.941 (MB)
	Size of irrep 2 of <ia|bc> integrals:      0.698 (MW) /      5.588 (MB)
	Size of irrep 3 of <ia|bc> integrals:      0.959 (MW) /      7.675 (MB)
	Total:                                     3.370 (MW) /     26.961 (MB)

	Size of irrep 0 of <Ia|Bc> integrals:      1.507 (MW) /     12.058 (MB)
	Size of irrep 1 of <Ia|Bc> integrals:      0.721 (MW) /      5.764 (MB)
	Size of irrep 2 of <Ia|Bc> integrals:      0.939 (MW) /      7.514 (MB)
	Size of irrep 3 of <Ia|Bc> integrals:      1.234 (MW) /      9.872 (MB)
	Total:                                     4.401 (MW) /     35.208 (MB)

	Size of irrep 0 of <iA|bC> integrals:      1.194 (MW) /      9.549 (MB)
	Size of irrep 1 of <iA|bC> integrals:      0.477 (MW) /      3.814 (MB)
	Size of irrep 2 of <iA|bC> integrals:      0.671 (MW) /      5.371 (MB)
	Size of irrep 3 of <iA|bC> integrals:      0.928 (MW) /      7.422 (MB)
	Total:                                     3.270 (MW) /     26.156 (MB)

	Size of irrep 0 of tIjAb amplitudes:       0.094 (MW) /      0.749 (MB)
	Size of irrep 1 of tIjAb amplitudes:       0.015 (MW) /      0.116 (MB)
	Size of irrep 2 of tIjAb amplitudes:       0.047 (MW) /      0.373 (MB)
	Size of irrep 3 of tIjAb amplitudes:       0.053 (MW) /      0.426 (MB)
	Total:                                     0.208 (MW) /      1.664 (MB)

	Nuclear Rep. energy          =     22.43221805432265
	SCF energy                   =   -150.87332012379801
	One-electron energy          =    -83.84961980868202
	Two-electron (AA) energy     =     10.04475517135679
	Two-electron (BB) energy     =      5.34426885130650
	Two-electron (AB) energy     =     20.80979534791718
	Two-electron energy          =     36.19881937058047
	Reference energy             =   -150.87332012379949

*** tstop() called on c1-11.compute.lan at Wed Mar 10 09:37:27 2021
Module time:
	user time   =     128.45 seconds =       2.14 minutes
	system time =      18.77 seconds =       0.31 minutes
	total time  =         29 seconds =       0.48 minutes
Total time:
	user time   =     179.13 seconds =       2.99 minutes
	system time =      21.89 seconds =       0.36 minutes
	total time  =         37 seconds =       0.62 minutes
            **************************
            *                        *
            *        CCENERGY        *
            *                        *
            **************************

    Nuclear Rep. energy (wfn)     =   22.432218054322650
    SCF energy          (wfn)     = -150.873320123798010
    Reference energy    (file100) = -150.873320123799488

    Input parameters:
    -----------------
    Wave function   =     CCSD_T
    Reference wfn   =     UHF
    Brueckner       =     No
    Memory (Mbytes) =     4000.0
    Maxiter         =     50
    R_Convergence   =     1.0e-10
    E_Convergence   =     1.0e-10
    Restart         =     Yes
    DIIS            =     Yes
    AO Basis        =     NONE
    ABCD            =     NEW
    Cache Level     =     2
    Cache Type      =     LRU
    Print Level     =     1
    Num. of threads =     12
    # Amps to Print =     10
    Print MP2 Amps? =     No
    Analyze T2 Amps =     No
    Print Pair Ener =     No
    Local CC        =     No
    SCS-MP2         =     False
    SCSN-MP2        =     False
    SCS-CCSD        =     False

MP2 correlation energy -0.4159068740110352
                Solving CC Amplitude Equations
                ------------------------------
  Iter             Energy              RMS        T1Diag      D1Diag    New D1Diag    D2Diag
  ----     ---------------------    ---------   ----------  ----------  ----------   --------
     0        -0.415906874011035    0.000e+00    0.000000    0.000000    0.000000    0.000000
     1        -0.426765141003859    5.644e-02    0.010384    0.000000    0.000000    0.000000
     2        -0.434866437258243    1.679e-02    0.010898    0.000000    0.000000    0.000000
     3        -0.436961521300445    8.437e-03    0.012726    0.000000    0.000000    0.000000
     4        -0.436837369017509    2.493e-03    0.013076    0.000000    0.000000    0.000000
     5        -0.436823941545374    1.276e-03    0.013223    0.000000    0.000000    0.000000
     6        -0.436849700681119    5.011e-04    0.013240    0.000000    0.000000    0.000000
     7        -0.436854160037852    2.384e-04    0.013232    0.000000    0.000000    0.000000
     8        -0.436854828140459    7.039e-05    0.013226    0.000000    0.000000    0.000000
     9        -0.436856089679389    3.187e-05    0.013226    0.000000    0.000000    0.000000
    10        -0.436854824095302    1.332e-05    0.013226    0.000000    0.000000    0.000000
    11        -0.436854928115739    7.360e-06    0.013226    0.000000    0.000000    0.000000
    12        -0.436854884289064    3.680e-06    0.013227    0.000000    0.000000    0.000000
    13        -0.436854891876318    1.800e-06    0.013227    0.000000    0.000000    0.000000
    14        -0.436854932631601    7.482e-07    0.013227    0.000000    0.000000    0.000000
    15        -0.436854932896336    1.850e-07    0.013227    0.000000    0.000000    0.000000
    16        -0.436854933000161    1.103e-07    0.013227    0.000000    0.000000    0.000000
    17        -0.436854933924156    3.132e-08    0.013227    0.000000    0.000000    0.000000
    18        -0.436854933506007    1.379e-08    0.013227    0.000000    0.000000    0.000000

      * MP2 total energy                      = -151.289226997810516
      * CCSD total energy                     = -151.310175057119494
      * CCSD(T) total energy                     = -151.322421848565313
*** Psi4 exiting successfully. Buy a developer a beer!
