                               Psi4 1.3.2 release

  ==> Input File <==

--------------------------------------------------------------------------
memory 4 GB

molecule  {
0 3
O   -1.520262879297   -0.028222428295    0.000000000000
H   -0.556556299150   -0.003538089112    0.000000000000
H   -1.780296936482    0.896888089079    0.000000000000
O    1.667505877683   -0.028066743228    0.000000000000
}
set {
basis aug-cc-pvtz
reference uhf
e_convergence 10
scf_type pk
freeze_core true
}

set ccenergy {
e_convergence 10
r_convergence 10
}

e = energy('ccsd(t)')

print_out('Stephenergy {}'.format(e))

--------------------------------------------------------------------------

    Molecular point group: cs

    Geometry (in Angstrom), charge = 0, multiplicity = 3:

       Center              X                  Y                   Z               Mass
    ------------   -----------------  -----------------  -----------------  -----------------
         O           -1.520262879297    -0.028222428295     0.000000000000    15.994914619570
         H           -0.556556299150    -0.003538089112     0.000000000000     1.007825032230
         H           -1.780296936482     0.896888089079     0.000000000000     1.007825032230
         O            1.667505877683    -0.028066743228     0.000000000000    15.994914619570

  Charge       = 0
  Multiplicity = 3
  Basis Set: AUG-CC-PVTZ
    Blend: AUG-CC-PVTZ

    Orbital Energies [Eh]
    ---------------------

    Alpha Occupied:

       1Ap   -20.734977     2Ap   -20.558537     3Ap    -1.444301
       4Ap    -1.342578     5Ap    -0.734834     1App   -0.734683
       6Ap    -0.709284     7Ap    -0.636914     8Ap    -0.574691
       2App   -0.501574

    Alpha Virtual:

       9Ap     0.034581    10Ap     0.053278    11Ap     0.127508
       3App    0.131561    12Ap     0.148046    13Ap     0.161202
      14Ap     0.183484     4App    0.186313    15Ap     0.211716
      16Ap     0.241585    17Ap     0.271805     5App    0.282641
      18Ap     0.293653     6App    0.323290    19Ap     0.371947
      20Ap     0.393175    21Ap     0.460220    22Ap     0.559324
       7App    0.600072    23Ap     0.608667    24Ap     0.643314
      25Ap     0.668805    26Ap     0.712234     8App    0.713010
       9App    0.734732    10App    0.747427    27Ap     0.766034
      28Ap     0.798027    11App    0.824760    29Ap     0.851675
      30Ap     0.865664    12App    0.883477    31Ap     0.923317
      13App    0.942289    32Ap     0.944418    33Ap     0.956495
      14App    0.983617    34Ap     0.985849    35Ap     1.043547
      36Ap     1.128008    37Ap     1.168788    15App    1.177470
      38Ap     1.193909    16App    1.261257    39Ap     1.272875
      40Ap     1.324242    17App    1.528511    41Ap     1.556171
      18App    1.600528    42Ap     1.690412    43Ap     1.819193
      44Ap     1.826872    19App    1.975587    45Ap     1.975622
      46Ap     1.995548    20App    2.011197    47Ap     2.017708
      21App    2.048662    48Ap     2.060882    22App    2.122981
      49Ap     2.164861    50Ap     2.166417    23App    2.211502
      24App    2.295093    51Ap     2.302550    52Ap     2.328842
      53Ap     2.415027    25App    2.449635    54Ap     2.462098
      26App    2.524128    55Ap     2.535357    56Ap     2.631748
      57Ap     2.670582    27App    2.729037    58Ap     2.751411
      59Ap     2.864945    60Ap     2.941983    28App    2.946440
      61Ap     3.699410    62Ap     3.893805    29App    4.035817
      30App    4.058458    63Ap     4.076199    31App    4.172338
      64Ap     4.199851    65Ap     4.273996    32App    4.298232
      66Ap     4.377312    33App    4.393147    67Ap     4.436252
      34App    4.439968    68Ap     4.578286    69Ap     4.783539
      70Ap     4.962043    35App    5.154431    71Ap     5.181189
      72Ap     5.305915    73Ap     5.373128    36App    5.526448
      74Ap     5.689133    75Ap     6.197668    37App    6.310210
      76Ap     6.310252    38App    6.372911    77Ap     6.375650
      39App    6.520890    78Ap     6.526661    79Ap     6.556871
      80Ap     6.635499    40App    6.724777    81Ap     6.812325
      41App    6.818446    82Ap     6.914270    42App    6.933839
      83Ap     6.967048    84Ap     7.049640    43App    7.146919
      44App    7.275226    85Ap     7.322253    45App    7.326719
      86Ap     7.359567    46App    7.441962    87Ap     7.657460
      88Ap     7.945455    89Ap     7.966436    90Ap     8.810159
      91Ap     9.397835    92Ap    16.515381

    Beta Occupied:

       1Ap   -20.656196     2Ap   -20.558678     3Ap    -1.343185
       4Ap    -1.101849     5Ap    -0.708266     6Ap    -0.581241
       7Ap    -0.542161     1App   -0.501630

    Beta Virtual:

       8Ap     0.034234     9Ap     0.046172     2App    0.047641
      10Ap     0.057484    11Ap     0.144220    12Ap     0.151010
       3App    0.160476    13Ap     0.179841    14Ap     0.210115
      15Ap     0.218110     4App    0.225920    16Ap     0.251227
      17Ap     0.273775     5App    0.282973    18Ap     0.295889
       6App    0.327037    19Ap     0.375766    20Ap     0.403937
      21Ap     0.460953    22Ap     0.562305     7App    0.632385
      23Ap     0.638967    24Ap     0.646370    25Ap     0.671848
      26Ap     0.712899     8App    0.726773     9App    0.735888
      10App    0.748906    27Ap     0.784969    28Ap     0.810559
      29Ap     0.856615    11App    0.867648    30Ap     0.918532
      12App    0.936202    31Ap     0.943946    13App    0.949529
      32Ap     0.954226    33Ap     0.973701    34Ap     1.015867
      14App    1.024890    35Ap     1.047582    36Ap     1.154645
      37Ap     1.176545    15App    1.180786    38Ap     1.219019
      16App    1.272364    39Ap     1.275056    40Ap     1.334997
      17App    1.529356    41Ap     1.561794    18App    1.602139
      42Ap     1.717486    43Ap     1.824466    44Ap     1.834248
      45Ap     2.003033    19App    2.013687    46Ap     2.013875
      20App    2.053240    47Ap     2.065938    21App    2.170916
      48Ap     2.179510    22App    2.179647    49Ap     2.204398
      50Ap     2.228957    23App    2.248933    24App    2.297030
      51Ap     2.317651    52Ap     2.343586    53Ap     2.422162
      25App    2.452064    54Ap     2.462914    26App    2.532788
      55Ap     2.542631    56Ap     2.637959    57Ap     2.681832
      27App    2.730195    58Ap     2.758292    59Ap     2.869474
      60Ap     2.944807    28App    2.947128    61Ap     3.699865
      62Ap     3.896678    29App    4.036050    30App    4.145730
      63Ap     4.179661    64Ap     4.243211    31App    4.254969
      65Ap     4.295795    32App    4.298592    66Ap     4.391637
      33App    4.393330    34App    4.441486    67Ap     4.467756
      68Ap     4.579276    69Ap     4.784913    70Ap     4.964351
      35App    5.154418    71Ap     5.181714    72Ap     5.306142
      73Ap     5.374183    36App    5.526534    74Ap     5.689769
      75Ap     6.198136    37App    6.419168    76Ap     6.419192
      38App    6.448299    77Ap     6.451095    78Ap     6.532882
      39App    6.575804    79Ap     6.606766    80Ap     6.681562
      40App    6.729120    81Ap     6.916552    41App    7.004493
      82Ap     7.005488    42App    7.042023    83Ap     7.071538
      84Ap     7.129902    43App    7.149311    44App    7.275688
      85Ap     7.322421    45App    7.327547    86Ap     7.360032
      46App    7.442407    87Ap     7.658739    88Ap     7.945843
      89Ap     7.966588    90Ap     8.812633    91Ap     9.472373
      92Ap    16.515944

    Final Occupation by Irrep:
             Ap   App
    DOCC [     7,    1 ]
    SOCC [     1,    1 ]

  @UHF Final Energy:  -150.87436656538947

   => Energetics <=

    Nuclear Repulsion Energy =             22.8585305701671260
    One-Electron Energy =                -253.5002148377722619
    Two-Electron Energy =                  79.7673177022156779
    Total Energy =                       -150.8743665653894652

  UHF NO Occupations:
  HONO-2 :    7 Ap 1.9970290
  HONO-1 :    8 Ap 1.0000000
  HONO-0 :    2App 1.0000000
  LUNO+0 :    9 Ap 0.0029710
  LUNO+1 :   10 Ap 0.0017129
  LUNO+2 :   11 Ap 0.0000024
  LUNO+3 :   12 Ap 0.0000019

Computation Completed

Properties will be evaluated at   0.000000,   0.000000,   0.000000 [a0]

Properties computed using the SCF density matrix

  Nuclear Dipole Moment: [e a0]
     X:    -2.1900      Y:     0.8372      Z:     0.0000

  Electronic Dipole Moment: [e a0]
     X:     2.7522      Y:    -0.2168      Z:     0.0000

  Dipole Moment: [e a0]
     X:     0.5622      Y:     0.6205      Z:     0.0000     Total:     0.8373

  Dipole Moment: [D]
     X:     1.4290      Y:     1.5771      Z:     0.0000     Total:     2.1282

*** tstop() called on c1-11.compute.lan at Tue Mar  9 15:13:36 2021
Module time:
	user time   =      62.55 seconds =       1.04 minutes
	system time =       3.11 seconds =       0.05 minutes
	total time  =          6 seconds =       0.10 minutes
Total time:
	user time   =      62.55 seconds =       1.04 minutes
	system time =       3.11 seconds =       0.05 minutes
	total time  =          6 seconds =       0.10 minutes
 MINTS: Wrapper to libmints.
   by Justin Turney

   Calculation information:
      Number of threads:                12
      Number of atoms:                   4
      Number of AO shells:              46
      Number of SO shells:              46
      Number of primitives:             82
      Number of atomic orbitals:       160
      Number of basis functions:       138

      Number of irreps:                  2
      Integral cutoff                 0.00e+00
      Number of functions per irrep: [  92   46 ]

 OEINTS: Overlap, kinetic, potential, dipole, and quadrupole integrals
         stored in file 35.

      Computing two-electron integrals...done
      Computed 22943919 non-zero two-electron integrals.
        Stored in file 33.

*** tstart() called on c1-11.compute.lan
*** at Tue Mar  9 15:13:39 2021

	Wfn Parameters:
	--------------------
	Wavefunction         = CCSD_T
	Number of irreps     = 2
	Number of MOs        = 138
	Number of active MOs = 136
	AO-Basis             = NONE
	Semicanonical        = false
	Reference            = UHF
	Print Level          = 1

	IRREP	# MOs	# FZDC	# DOCC	# SOCC	# VIRT	# FZVR
	-----	-----	------	------	------	------	------
	 Ap	   92	    2	    5	    1	    84	    0
	 App	   46	    0	    1	    1	    44	    0
	Transforming integrals...
	IWL integrals will be deleted.
	(OO|OO)...
	Presorting SO-basis two-electron integrals.
	Sorting File: SO Ints (nn|nn) nbuckets = 1
	Transforming the one-electron integrals and constructing Fock matrices
	Starting AA/AB first half-transformation.
	Sorting AA/AB half-transformed integrals.
	Starting BB first half-transformation.
	Sorting BB half-transformed integrals.
	First half integral transformation complete.
	Starting AA second half-transformation.
	Starting AB second half-transformation.
	Starting BB second half-transformation.
	Two-electron integral transformation complete.
	(OO|OV)...
	Starting AA second half-transformation.
	Starting AB second half-transformation.
	Starting BB second half-transformation.
	Two-electron integral transformation complete.
	(OO|VV)...
	Starting AA second half-transformation.
	Starting AB second half-transformation.
	Starting BB second half-transformation.
	Two-electron integral transformation complete.
	(OV|OO)...
	Starting AA/AB first half-transformation.
	Sorting AA/AB half-transformed integrals.
	Starting BB first half-transformation.
	Sorting BB half-transformed integrals.
	First half integral transformation complete.
	Starting AA second half-transformation.
	Starting AB second half-transformation.
	Starting BB second half-transformation.
	Two-electron integral transformation complete.
	(OV|OV)...
	Starting AA second half-transformation.
	Starting AB second half-transformation.
	Starting BB second half-transformation.
	Two-electron integral transformation complete.
	(OV|VV)...
	Starting AA second half-transformation.
	Starting AB second half-transformation.
	Starting BB second half-transformation.
	Two-electron integral transformation complete.
	(VV|OO)...
	Starting AA/AB first half-transformation.
	Sorting AA/AB half-transformed integrals.
	Starting BB first half-transformation.
	Sorting BB half-transformed integrals.
	First half integral transformation complete.
	Starting AA second half-transformation.
	Starting AB second half-transformation.
	Starting BB second half-transformation.
	Two-electron integral transformation complete.
	(VV|OV)...
	Starting AA second half-transformation.
	Starting AB second half-transformation.
	Starting BB second half-transformation.
	Two-electron integral transformation complete.
	(VV|VV)...
	Starting AA second half-transformation.
	Starting AB second half-transformation.
	Starting BB second half-transformation.
	Two-electron integral transformation complete.
	Frozen core energy     =   -125.83055766236295

	Size of irrep 0 of <AB|CD> integrals:     19.643 (MW) /    157.141 (MB)
	Size of irrep 1 of <AB|CD> integrals:     13.660 (MW) /    109.283 (MB)
	Total:                                    33.303 (MW) /    266.424 (MB)

	Size of irrep 0 of <ab|cd> integrals:     20.794 (MW) /    166.349 (MB)
	Size of irrep 1 of <ab|cd> integrals:     14.631 (MW) /    117.045 (MB)
	Total:                                    35.424 (MW) /    283.394 (MB)

	Size of irrep 0 of <Ab|Cd> integrals:     83.174 (MW) /    665.395 (MB)
	Size of irrep 1 of <Ab|Cd> integrals:     56.550 (MW) /    452.403 (MB)
	Total:                                   139.725 (MW) /   1117.798 (MB)

	Size of irrep 0 of <IA|BC> integrals:      5.323 (MW) /     42.586 (MB)
	Size of irrep 1 of <IA|BC> integrals:      3.193 (MW) /     25.547 (MB)
	Total:                                     8.517 (MW) /     68.133 (MB)

	Size of irrep 0 of <ia|bc> integrals:      4.348 (MW) /     34.780 (MB)
	Size of irrep 1 of <ia|bc> integrals:      2.372 (MW) /     18.972 (MB)
	Total:                                     6.719 (MW) /     53.752 (MB)

	Size of irrep 0 of <Ia|Bc> integrals:      5.472 (MW) /     43.776 (MB)
	Size of irrep 1 of <Ia|Bc> integrals:      3.309 (MW) /     26.470 (MB)
	Total:                                     8.781 (MW) /     70.246 (MB)

	Size of irrep 0 of <iA|bC> integrals:      4.232 (MW) /     33.853 (MB)
	Size of irrep 1 of <iA|bC> integrals:      2.286 (MW) /     18.289 (MB)
	Total:                                     6.518 (MW) /     52.142 (MB)

	Size of irrep 0 of tIjAb amplitudes:       0.292 (MW) /      2.335 (MB)
	Size of irrep 1 of tIjAb amplitudes:       0.120 (MW) /      0.963 (MB)
	Total:                                     0.412 (MW) /      3.297 (MB)

	Nuclear Rep. energy          =     22.85853057016713
	SCF energy                   =   -150.87436656538947
	One-electron energy          =    -84.34748769208282
	Two-electron (AA) energy     =     10.12574932971107
	Two-electron (BB) energy     =      5.38770633942723
	Two-electron (AB) energy     =     20.93169254975010
	Two-electron energy          =     36.44514821888840
	Reference energy             =   -150.87436656539023

*** tstop() called on c1-11.compute.lan at Tue Mar  9 15:14:22 2021
Module time:
	user time   =     106.54 seconds =       1.78 minutes
	system time =      25.89 seconds =       0.43 minutes
	total time  =         43 seconds =       0.72 minutes
Total time:
	user time   =     175.20 seconds =       2.92 minutes
	system time =      29.80 seconds =       0.50 minutes
	total time  =         52 seconds =       0.87 minutes
            **************************
            *                        *
            *        CCENERGY        *
            *                        *
            **************************

    Nuclear Rep. energy (wfn)     =   22.858530570167126
    SCF energy          (wfn)     = -150.874366565389465
    Reference energy    (file100) = -150.874366565390233

    Input parameters:
    -----------------
    Wave function   =     CCSD_T
    Reference wfn   =     UHF
    Brueckner       =     No
    Memory (Mbytes) =     4000.0
    Maxiter         =     50
    R_Convergence   =     1.0e-10
    E_Convergence   =     1.0e-10
    Restart         =     Yes
    DIIS            =     Yes
    AO Basis        =     NONE
    ABCD            =     NEW
    Cache Level     =     2
    Cache Type      =     LRU
    Print Level     =     1
    Num. of threads =     12
    # Amps to Print =     10
    Print MP2 Amps? =     No
    Analyze T2 Amps =     No
    Print Pair Ener =     No
    Local CC        =     No
    SCS-MP2         =     False
    SCSN-MP2        =     False
    SCS-CCSD        =     False

MP2 correlation energy -0.4166355875231118
                Solving CC Amplitude Equations
                ------------------------------
  Iter             Energy              RMS        T1Diag      D1Diag    New D1Diag    D2Diag
  ----     ---------------------    ---------   ----------  ----------  ----------   --------
     0        -0.416635587523112    0.000e+00    0.000000    0.000000    0.000000    0.000000
     1        -0.427353351940458    5.687e-02    0.010547    0.000000    0.000000    0.000000
     2        -0.435450875652506    1.689e-02    0.011034    0.000000    0.000000    0.000000
     3        -0.437568479208140    8.575e-03    0.012906    0.000000    0.000000    0.000000
     4        -0.437443313714450    2.535e-03    0.013274    0.000000    0.000000    0.000000
     5        -0.437428229342738    1.327e-03    0.013431    0.000000    0.000000    0.000000
     6        -0.437455528981579    5.166e-04    0.013454    0.000000    0.000000    0.000000
     7        -0.437460345620645    2.681e-04    0.013449    0.000000    0.000000    0.000000
     8        -0.437460914552565    9.685e-05    0.013445    0.000000    0.000000    0.000000
     9        -0.437462322815183    6.948e-05    0.013446    0.000000    0.000000    0.000000
    10        -0.437460760916539    5.805e-05    0.013447    0.000000    0.000000    0.000000
    11        -0.437460891567960    5.478e-05    0.013448    0.000000    0.000000    0.000000
    12        -0.437460691374636    5.304e-05    0.013450    0.000000    0.000000    0.000000
    13        -0.437460680467622    5.209e-05    0.013452    0.000000    0.000000    0.000000
    14        -0.437461598684410    5.080e-05    0.013462    0.000000    0.000000    0.000000
    15        -0.437461932647356    4.640e-05    0.013507    0.000000    0.000000    0.000000
    16        -0.437461703412649    3.349e-05    0.013625    0.000000    0.000000    0.000000
    17        -0.437461406009034    1.699e-05    0.013697    0.000000    0.000000    0.000000
    18        -0.437461259202244    7.989e-06    0.013717    0.000000    0.000000    0.000000
    19        -0.437461505800088    3.516e-06    0.013723    0.000000    0.000000    0.000000
    20        -0.437461623858187    1.552e-06    0.013724    0.000000    0.000000    0.000000
    21        -0.437461630769682    6.195e-07    0.013724    0.000000    0.000000    0.000000
    22        -0.437461631883049    2.828e-07    0.013724    0.000000    0.000000    0.000000
    23        -0.437461631171846    1.427e-07    0.013724    0.000000    0.000000    0.000000
    24        -0.437461630374287    5.516e-08    0.013724    0.000000    0.000000    0.000000
    25        -0.437461631278870    2.743e-08    0.013724    0.000000    0.000000    0.000000
    26        -0.437461631715249    1.929e-08    0.013724    0.000000    0.000000    0.000000
    27        -0.437461631847789    1.760e-08    0.013724    0.000000    0.000000    0.000000
    28        -0.437461631825372    1.699e-08    0.013724    0.000000    0.000000    0.000000
    29        -0.437461631730862    1.658e-08    0.013724    0.000000    0.000000    0.000000
    30        -0.437461631542822    1.607e-08    0.013724    0.000000    0.000000    0.000000
    31        -0.437461631567341    1.455e-08    0.013724    0.000000    0.000000    0.000000
    32        -0.437461631816671    9.369e-09    0.013724    0.000000    0.000000    0.000000
    33        -0.437461631912668    4.361e-09    0.013724    0.000000    0.000000    0.000000
    34        -0.437461631973391    1.851e-09    0.013724    0.000000    0.000000    0.000000
    35        -0.437461631981143    7.227e-10    0.013724    0.000000    0.000000    0.000000
    36        -0.437461631980587    2.907e-10    0.013724    0.000000    0.000000    0.000000

      * MP2 total energy                      = -151.291002152913336
      * CCSD total energy                     = -151.311828197370062
      * CCSD(T) total energy                     = -151.324189815451859
*** Psi4 exiting successfully. Buy a developer a beer!
