                               Psi4 1.3.2 release

  ==> Input File <==

--------------------------------------------------------------------------
memory 4 GB

molecule  {
0 3
O   -1.626052396214   -0.021773618994    0.000000000000
H   -0.663279771014   -0.025192620391    0.000000000000
H   -1.860873780641    0.911160605454    0.000000000000
O    1.785097017274   -0.034050418479    0.000000000000
}
set {
basis aug-cc-pvtz
reference uhf
e_convergence 10
scf_type pk
freeze_core true
}

set ccenergy {
e_convergence 10
r_convergence 10
}

e = energy('ccsd(t)')

print_out('Stephenergy {}'.format(e))

--------------------------------------------------------------------------

    Molecular point group: cs

    Geometry (in Angstrom), charge = 0, multiplicity = 3:

       Center              X                  Y                   Z               Mass
    ------------   -----------------  -----------------  -----------------  -----------------
         O           -1.626052396214    -0.021773618994     0.000000000000    15.994914619570
         H           -0.663279771014    -0.025192620391     0.000000000000     1.007825032230
         H           -1.860873780641     0.911160605454     0.000000000000     1.007825032230
         O            1.785097017274    -0.034050418479     0.000000000000    15.994914619570

  Charge       = 0
  Multiplicity = 3
  Basis Set: AUG-CC-PVTZ
    Blend: AUG-CC-PVTZ

    Orbital Energies [Eh]
    ---------------------

    Alpha Occupied:

       1Ap   -20.731246     2Ap   -20.561276     3Ap    -1.440087
       4Ap    -1.344776     5Ap    -0.730972     1App   -0.730880
       6Ap    -0.709650     7Ap    -0.633289     8Ap    -0.577489
       2App   -0.503814

    Alpha Virtual:

       9Ap     0.034218    10Ap     0.053376    11Ap     0.128561
       3App    0.132319    12Ap     0.147484    13Ap     0.160433
      14Ap     0.182789     4App    0.183443    15Ap     0.207375
      16Ap     0.236402    17Ap     0.268943     5App    0.281115
      18Ap     0.290203     6App    0.319125    19Ap     0.362776
      20Ap     0.387333    21Ap     0.457204    22Ap     0.555413
       7App    0.602999    23Ap     0.607895    24Ap     0.644220
      25Ap     0.666032     8App    0.689233    26Ap     0.712003
       9App    0.733542    10App    0.747164    27Ap     0.758210
      28Ap     0.789534    11App    0.824743    29Ap     0.839003
      30Ap     0.854168    12App    0.876380    31Ap     0.914465
      32Ap     0.929747    13App    0.938935    33Ap     0.949867
      14App    0.974370    34Ap     0.978358    35Ap     1.038791
      36Ap     1.089490    15App    1.164490    37Ap     1.171393
      38Ap     1.215037    16App    1.215620    39Ap     1.265703
      40Ap     1.279874    17App    1.522215    41Ap     1.539254
      18App    1.591527    42Ap     1.610610    43Ap     1.804336
      44Ap     1.813460    19App    1.978349    45Ap     1.978407
      46Ap     2.003934    20App    2.009706    47Ap     2.018799
      21App    2.035366    48Ap     2.041803    22App    2.093242
      49Ap     2.126742    50Ap     2.142347    23App    2.167374
      51Ap     2.244997    24App    2.286751    52Ap     2.327321
      53Ap     2.374317    25App    2.429526    54Ap     2.452807
      26App    2.464261    55Ap     2.487538    56Ap     2.553231
      57Ap     2.656737    27App    2.723975    58Ap     2.727002
      59Ap     2.858043    60Ap     2.915358    28App    2.935886
      61Ap     3.684395    62Ap     3.820996    29App    4.027834
      30App    4.054073    63Ap     4.069324    31App    4.146145
      64Ap     4.188076    65Ap     4.265749    32App    4.296980
      66Ap     4.364456    33App    4.389684    34App    4.429218
      67Ap     4.430805    68Ap     4.562441    69Ap     4.771836
      70Ap     4.935367    35App    5.152988    71Ap     5.174298
      72Ap     5.300686    73Ap     5.367947    36App    5.523704
      74Ap     5.683855    75Ap     6.188864    37App    6.313672
      76Ap     6.313695    38App    6.367018    77Ap     6.368329
      39App    6.471723    78Ap     6.489376    79Ap     6.534096
      80Ap     6.598639    40App    6.717316    81Ap     6.813849
      41App    6.818219    82Ap     6.910874    42App    6.925729
      83Ap     6.953399    84Ap     7.040141    43App    7.141045
      44App    7.270161    85Ap     7.320216    45App    7.321799
      86Ap     7.350564    46App    7.414728    87Ap     7.638528
      88Ap     7.932500    89Ap     7.950477    90Ap     8.805358
      91Ap     9.028503    92Ap    16.331489

    Beta Occupied:

       1Ap   -20.652496     2Ap   -20.561355     3Ap    -1.345090
       4Ap    -1.097545     5Ap    -0.709419     6Ap    -0.580622
       7Ap    -0.540703     1App   -0.503855

    Beta Virtual:

       8Ap     0.034111     9Ap     0.047247     2App    0.049766
      10Ap     0.058615    11Ap     0.143377    12Ap     0.151593
       3App    0.160077    13Ap     0.179648    14Ap     0.207766
      15Ap     0.217558     4App    0.226557    16Ap     0.245297
      17Ap     0.271276     5App    0.281323    18Ap     0.292840
       6App    0.320779    19Ap     0.366130    20Ap     0.394616
      21Ap     0.457694    22Ap     0.557595     7App    0.635809
      23Ap     0.638361    24Ap     0.647316    25Ap     0.669479
       8App    0.703160    26Ap     0.712659     9App    0.734394
      10App    0.748250    27Ap     0.772465    28Ap     0.801059
      29Ap     0.845839    11App    0.860814    30Ap     0.912192
      12App    0.926954    31Ap     0.930544    32Ap     0.946264
      13App    0.948621    33Ap     0.969064    34Ap     1.009239
      14App    1.023044    35Ap     1.040569    36Ap     1.099242
      15App    1.168562    37Ap     1.174512    16App    1.224074
      38Ap     1.257521    39Ap     1.269573    40Ap     1.288930
      17App    1.523003    41Ap     1.551476    18App    1.592562
      42Ap     1.638411    43Ap     1.807396    44Ap     1.815613
      45Ap     2.014795    19App    2.016506    46Ap     2.016682
      20App    2.039677    47Ap     2.047511    21App    2.129841
      48Ap     2.169433    49Ap     2.177574    22App    2.179207
      50Ap     2.181603    23App    2.216981    51Ap     2.283055
      24App    2.288240    52Ap     2.335761    53Ap     2.390339
      25App    2.432526    54Ap     2.454744    26App    2.472235
      55Ap     2.494578    56Ap     2.559021    57Ap     2.663946
      27App    2.724590    58Ap     2.729359    59Ap     2.861879
      60Ap     2.917310    28App    2.936547    61Ap     3.684708
      62Ap     3.822192    29App    4.028311    30App    4.129188
      63Ap     4.177775    64Ap     4.240918    31App    4.241172
      65Ap     4.274725    32App    4.297009    66Ap     4.381724
      33App    4.389939    34App    4.430755    67Ap     4.460877
      68Ap     4.563147    69Ap     4.773046    70Ap     4.936141
      35App    5.152975    71Ap     5.174704    72Ap     5.300887
      73Ap     5.368743    36App    5.523707    74Ap     5.684189
      75Ap     6.189687    37App    6.422629    76Ap     6.422645
      38App    6.443107    77Ap     6.444599    78Ap     6.522676
      39App    6.527518    79Ap     6.556594    80Ap     6.645675
      40App    6.719870    81Ap     6.911136    41App    7.005510
      82Ap     7.006133    42App    7.035059    83Ap     7.061355
      84Ap     7.122918    43App    7.143003    44App    7.270298
      85Ap     7.320378    45App    7.322412    86Ap     7.350776
      46App    7.415271    87Ap     7.640750    88Ap     7.932873
      89Ap     7.950750    90Ap     8.808239    91Ap     9.103231
      92Ap    16.331815

    Final Occupation by Irrep:
             Ap   App
    DOCC [     7,    1 ]
    SOCC [     1,    1 ]

  @UHF Final Energy:  -150.87465902045855

   => Energetics <=

    Nuclear Repulsion Energy =             21.9270592612676936
    One-Electron Energy =                -251.6488739548946683
    Two-Electron Energy =                  78.8471556731684302
    Total Energy =                       -150.8746590204585516

  UHF NO Occupations:
  HONO-2 :    7 Ap 1.9970391
  HONO-1 :    8 Ap 1.0000000
  HONO-0 :    2App 1.0000000
  LUNO+0 :    9 Ap 0.0029609
  LUNO+1 :   10 Ap 0.0017368
  LUNO+2 :   11 Ap 0.0000024
  LUNO+3 :   12 Ap 0.0000007

Computation Completed

Properties will be evaluated at   0.000000,   0.000000,   0.000000 [a0]

Properties computed using the SCF density matrix

  Nuclear Dipole Moment: [e a0]
     X:    -2.3656      Y:     0.8303      Z:     0.0000

  Electronic Dipole Moment: [e a0]
     X:     2.9192      Y:    -0.2215      Z:     0.0000

  Dipole Moment: [e a0]
     X:     0.5536      Y:     0.6088      Z:     0.0000     Total:     0.8229

  Dipole Moment: [D]
     X:     1.4072      Y:     1.5475      Z:     0.0000     Total:     2.0916

*** tstop() called on c5-20.compute.lan at Tue Mar  9 14:35:04 2021
Module time:
	user time   =      59.53 seconds =       0.99 minutes
	system time =       0.92 seconds =       0.02 minutes
	total time  =          5 seconds =       0.08 minutes
Total time:
	user time   =      59.53 seconds =       0.99 minutes
	system time =       0.92 seconds =       0.02 minutes
	total time  =          5 seconds =       0.08 minutes
 MINTS: Wrapper to libmints.
   by Justin Turney

   Calculation information:
      Number of threads:                12
      Number of atoms:                   4
      Number of AO shells:              46
      Number of SO shells:              46
      Number of primitives:             82
      Number of atomic orbitals:       160
      Number of basis functions:       138

      Number of irreps:                  2
      Integral cutoff                 0.00e+00
      Number of functions per irrep: [  92   46 ]

 OEINTS: Overlap, kinetic, potential, dipole, and quadrupole integrals
         stored in file 35.

      Computing two-electron integrals...done
      Computed 22933119 non-zero two-electron integrals.
        Stored in file 33.

*** tstart() called on c5-20.compute.lan
*** at Tue Mar  9 14:35:08 2021

	Wfn Parameters:
	--------------------
	Wavefunction         = CCSD_T
	Number of irreps     = 2
	Number of MOs        = 138
	Number of active MOs = 136
	AO-Basis             = NONE
	Semicanonical        = false
	Reference            = UHF
	Print Level          = 1

	IRREP	# MOs	# FZDC	# DOCC	# SOCC	# VIRT	# FZVR
	-----	-----	------	------	------	------	------
	 Ap	   92	    2	    5	    1	    84	    0
	 App	   46	    0	    1	    1	    44	    0
	Transforming integrals...
	IWL integrals will be deleted.
	(OO|OO)...
	Presorting SO-basis two-electron integrals.
	Sorting File: SO Ints (nn|nn) nbuckets = 1
	Transforming the one-electron integrals and constructing Fock matrices
	Starting AA/AB first half-transformation.
	Sorting AA/AB half-transformed integrals.
	Starting BB first half-transformation.
	Sorting BB half-transformed integrals.
	First half integral transformation complete.
	Starting AA second half-transformation.
	Starting AB second half-transformation.
	Starting BB second half-transformation.
	Two-electron integral transformation complete.
	(OO|OV)...
	Starting AA second half-transformation.
	Starting AB second half-transformation.
	Starting BB second half-transformation.
	Two-electron integral transformation complete.
	(OO|VV)...
	Starting AA second half-transformation.
	Starting AB second half-transformation.
	Starting BB second half-transformation.
	Two-electron integral transformation complete.
	(OV|OO)...
	Starting AA/AB first half-transformation.
	Sorting AA/AB half-transformed integrals.
	Starting BB first half-transformation.
	Sorting BB half-transformed integrals.
	First half integral transformation complete.
	Starting AA second half-transformation.
	Starting AB second half-transformation.
	Starting BB second half-transformation.
	Two-electron integral transformation complete.
	(OV|OV)...
	Starting AA second half-transformation.
	Starting AB second half-transformation.
	Starting BB second half-transformation.
	Two-electron integral transformation complete.
	(OV|VV)...
	Starting AA second half-transformation.
	Starting AB second half-transformation.
	Starting BB second half-transformation.
	Two-electron integral transformation complete.
	(VV|OO)...
	Starting AA/AB first half-transformation.
	Sorting AA/AB half-transformed integrals.
	Starting BB first half-transformation.
	Sorting BB half-transformed integrals.
	First half integral transformation complete.
	Starting AA second half-transformation.
	Starting AB second half-transformation.
	Starting BB second half-transformation.
	Two-electron integral transformation complete.
	(VV|OV)...
	Starting AA second half-transformation.
	Starting AB second half-transformation.
	Starting BB second half-transformation.
	Two-electron integral transformation complete.
	(VV|VV)...
	Starting AA second half-transformation.
	Starting AB second half-transformation.
	Starting BB second half-transformation.
	Two-electron integral transformation complete.
	Frozen core energy     =   -125.46727663651716

	Size of irrep 0 of <AB|CD> integrals:     19.643 (MW) /    157.141 (MB)
	Size of irrep 1 of <AB|CD> integrals:     13.660 (MW) /    109.283 (MB)
	Total:                                    33.303 (MW) /    266.424 (MB)

	Size of irrep 0 of <ab|cd> integrals:     20.794 (MW) /    166.349 (MB)
	Size of irrep 1 of <ab|cd> integrals:     14.631 (MW) /    117.045 (MB)
	Total:                                    35.424 (MW) /    283.394 (MB)

	Size of irrep 0 of <Ab|Cd> integrals:     83.174 (MW) /    665.395 (MB)
	Size of irrep 1 of <Ab|Cd> integrals:     56.550 (MW) /    452.403 (MB)
	Total:                                   139.725 (MW) /   1117.798 (MB)

	Size of irrep 0 of <IA|BC> integrals:      5.323 (MW) /     42.586 (MB)
	Size of irrep 1 of <IA|BC> integrals:      3.193 (MW) /     25.547 (MB)
	Total:                                     8.517 (MW) /     68.133 (MB)

	Size of irrep 0 of <ia|bc> integrals:      4.348 (MW) /     34.780 (MB)
	Size of irrep 1 of <ia|bc> integrals:      2.372 (MW) /     18.972 (MB)
	Total:                                     6.719 (MW) /     53.752 (MB)

	Size of irrep 0 of <Ia|Bc> integrals:      5.472 (MW) /     43.776 (MB)
	Size of irrep 1 of <Ia|Bc> integrals:      3.309 (MW) /     26.470 (MB)
	Total:                                     8.781 (MW) /     70.246 (MB)

	Size of irrep 0 of <iA|bC> integrals:      4.232 (MW) /     33.853 (MB)
	Size of irrep 1 of <iA|bC> integrals:      2.286 (MW) /     18.289 (MB)
	Total:                                     6.518 (MW) /     52.142 (MB)

	Size of irrep 0 of tIjAb amplitudes:       0.292 (MW) /      2.335 (MB)
	Size of irrep 1 of tIjAb amplitudes:       0.120 (MW) /      0.963 (MB)
	Total:                                     0.412 (MW) /      3.297 (MB)

	Nuclear Rep. energy          =     21.92705926126769
	SCF energy                   =   -150.87465902045855
	One-electron energy          =    -83.22069296996409
	Two-electron (AA) energy     =      9.94310728389742
	Two-electron (BB) energy     =      5.29179885946516
	Two-electron (AB) energy     =     20.65134518139103
	Two-electron energy          =     35.88625132475360
	Reference energy             =   -150.87465902045994

*** tstop() called on c5-20.compute.lan at Tue Mar  9 14:35:42 2021
Module time:
	user time   =     107.30 seconds =       1.79 minutes
	system time =      19.14 seconds =       0.32 minutes
	total time  =         34 seconds =       0.57 minutes
Total time:
	user time   =     173.15 seconds =       2.89 minutes
	system time =      20.80 seconds =       0.35 minutes
	total time  =         43 seconds =       0.72 minutes
            **************************
            *                        *
            *        CCENERGY        *
            *                        *
            **************************

    Nuclear Rep. energy (wfn)     =   21.927059261267694
    SCF energy          (wfn)     = -150.874659020458552
    Reference energy    (file100) = -150.874659020459944

    Input parameters:
    -----------------
    Wave function   =     CCSD_T
    Reference wfn   =     UHF
    Brueckner       =     No
    Memory (Mbytes) =     4000.0
    Maxiter         =     50
    R_Convergence   =     1.0e-10
    E_Convergence   =     1.0e-10
    Restart         =     Yes
    DIIS            =     Yes
    AO Basis        =     NONE
    ABCD            =     NEW
    Cache Level     =     2
    Cache Type      =     LRU
    Print Level     =     1
    Num. of threads =     12
    # Amps to Print =     10
    Print MP2 Amps? =     No
    Analyze T2 Amps =     No
    Print Pair Ener =     No
    Local CC        =     No
    SCS-MP2         =     False
    SCSN-MP2        =     False
    SCS-CCSD        =     False

MP2 correlation energy -0.4161258060694957
                Solving CC Amplitude Equations
                ------------------------------
  Iter             Energy              RMS        T1Diag      D1Diag    New D1Diag    D2Diag
  ----     ---------------------    ---------   ----------  ----------  ----------   --------
     0        -0.416125806069496    0.000e+00    0.000000    0.000000    0.000000    0.000000
     1        -0.426897007725801    5.667e-02    0.010460    0.000000    0.000000    0.000000
     2        -0.434983622568670    1.686e-02    0.010940    0.000000    0.000000    0.000000
     3        -0.437101289501591    8.483e-03    0.012778    0.000000    0.000000    0.000000
     4        -0.436975808246614    2.519e-03    0.013129    0.000000    0.000000    0.000000
     5        -0.436964106235612    1.275e-03    0.013274    0.000000    0.000000    0.000000
     6        -0.436990135574747    5.028e-04    0.013288    0.000000    0.000000    0.000000
     7        -0.436994253106910    2.285e-04    0.013277    0.000000    0.000000    0.000000
     8        -0.436995019040375    7.685e-05    0.013271    0.000000    0.000000    0.000000
     9        -0.436996256860340    4.677e-05    0.013271    0.000000    0.000000    0.000000
    10        -0.436995056222245    3.830e-05    0.013271    0.000000    0.000000    0.000000
    11        -0.436995153876113    3.681e-05    0.013271    0.000000    0.000000    0.000000
    12        -0.436995011061959    3.614e-05    0.013272    0.000000    0.000000    0.000000
    13        -0.436994927274256    3.564e-05    0.013273    0.000000    0.000000    0.000000
    14        -0.436995390558473    3.467e-05    0.013279    0.000000    0.000000    0.000000
    15        -0.436995456069942    3.220e-05    0.013294    0.000000    0.000000    0.000000
    16        -0.436995409338570    2.638e-05    0.013369    0.000000    0.000000    0.000000
    17        -0.436995355953894    1.520e-05    0.013422    0.000000    0.000000    0.000000
    18        -0.436995278908769    6.821e-06    0.013444    0.000000    0.000000    0.000000
    19        -0.436995450411055    2.992e-06    0.013449    0.000000    0.000000    0.000000
    20        -0.436995538811255    1.419e-06    0.013450    0.000000    0.000000    0.000000
    21        -0.436995544164233    5.836e-07    0.013450    0.000000    0.000000    0.000000
    22        -0.436995544367001    2.269e-07    0.013451    0.000000    0.000000    0.000000
    23        -0.436995544669482    9.880e-08    0.013451    0.000000    0.000000    0.000000
    24        -0.436995544471067    4.194e-08    0.013451    0.000000    0.000000    0.000000
    25        -0.436995545175281    2.172e-08    0.013451    0.000000    0.000000    0.000000
    26        -0.436995545552794    7.319e-09    0.013451    0.000000    0.000000    0.000000
    27        -0.436995545629846    2.389e-09    0.013451    0.000000    0.000000    0.000000
    28        -0.436995545657962    1.200e-09    0.013451    0.000000    0.000000    0.000000
    29        -0.436995545657552    7.828e-10    0.013451    0.000000    0.000000    0.000000
    30        -0.436995545647172    5.906e-10    0.013451    0.000000    0.000000    0.000000
    31        -0.436995545641520    5.162e-10    0.013451    0.000000    0.000000    0.000000
    32        -0.436995545639362    4.931e-10    0.013451    0.000000    0.000000    0.000000
    33        -0.436995545637904    4.777e-10    0.013451    0.000000    0.000000    0.000000
    34        -0.436995545637116    4.381e-10    0.013451    0.000000    0.000000    0.000000
    35        -0.436995545636504    3.330e-10    0.013451    0.000000    0.000000    0.000000
    36        -0.436995545637441    1.833e-10    0.013451    0.000000    0.000000    0.000000

      * MP2 total energy                      = -151.290784826529432
      * CCSD total energy                     = -151.311654566095967
      * CCSD(T) total energy                     = -151.323932781063689
*** Psi4 exiting successfully. Buy a developer a beer!
