                               Psi4 1.3.2 release

  ==> Input File <==

--------------------------------------------------------------------------
memory 4 GB

molecule  {
0 3
O   -1.524700329696   -0.028676944082    0.000000000000
H   -0.559536261573   -0.013019747536    0.000000000000
H   -1.780299174596    0.897987879708    0.000000000000
O    1.672131233828   -0.027084093569    0.000000000000
}
set {
basis aug-cc-pvtz
reference uhf
e_convergence 10
scf_type pk
freeze_core true
}

set ccenergy {
e_convergence 10
r_convergence 10
}

e = energy('ccsd(t)')

print_out('Stephenergy {}'.format(e))

--------------------------------------------------------------------------

    Molecular point group: cs

    Geometry (in Angstrom), charge = 0, multiplicity = 3:

       Center              X                  Y                   Z               Mass
    ------------   -----------------  -----------------  -----------------  -----------------
         O           -1.524700329696    -0.028676944082     0.000000000000    15.994914619570
         H           -0.559536261573    -0.013019747536     0.000000000000     1.007825032230
         H           -1.780299174596     0.897987879708     0.000000000000     1.007825032230
         O            1.672131233828    -0.027084093569     0.000000000000    15.994914619570

  Charge       = 0
  Multiplicity = 3
  Basis Set: AUG-CC-PVTZ
    Blend: AUG-CC-PVTZ

    Orbital Energies [Eh]
    ---------------------

    Alpha Occupied:

       1Ap   -20.734923     2Ap   -20.558656     3Ap    -1.444221
       4Ap    -1.342067     5Ap    -0.734761     1App   -0.734622
       6Ap    -0.709317     7Ap    -0.636895     8Ap    -0.574137
       2App   -0.501505

    Alpha Virtual:

       9Ap     0.034591    10Ap     0.053250    11Ap     0.127567
       3App    0.131533    12Ap     0.148041    13Ap     0.161192
      14Ap     0.183419     4App    0.186196    15Ap     0.211348
      16Ap     0.241357    17Ap     0.271937     5App    0.282418
      18Ap     0.293184     6App    0.323335    19Ap     0.371550
      20Ap     0.392420    21Ap     0.460054    22Ap     0.558891
       7App    0.600029    23Ap     0.608519    24Ap     0.643965
      25Ap     0.668150     8App    0.712073    26Ap     0.712285
       9App    0.734730    10App    0.747213    27Ap     0.765521
      28Ap     0.796533    11App    0.824681    29Ap     0.851048
      30Ap     0.865244    12App    0.882653    31Ap     0.922766
      13App    0.942423    32Ap     0.943742    33Ap     0.956490
      14App    0.983701    34Ap     0.986354    35Ap     1.043315
      36Ap     1.127612    37Ap     1.168484    15App    1.177611
      38Ap     1.193413    16App    1.258006    39Ap     1.272856
      40Ap     1.322020    17App    1.528254    41Ap     1.556330
      18App    1.600419    42Ap     1.688151    43Ap     1.816711
      44Ap     1.824977    19App    1.975600    45Ap     1.975639
      46Ap     1.996657    20App    2.011061    47Ap     2.017792
      21App    2.047779    48Ap     2.060269    22App    2.121972
      49Ap     2.163050    50Ap     2.164662    23App    2.209923
      24App    2.294230    51Ap     2.299087    52Ap     2.328533
      53Ap     2.413827    25App    2.447574    54Ap     2.461950
      26App    2.522224    55Ap     2.534254    56Ap     2.628895
      57Ap     2.665763    27App    2.729362    58Ap     2.751336
      59Ap     2.865279    60Ap     2.943249    28App    2.946018
      61Ap     3.698301    62Ap     3.890289    29App    4.033588
      30App    4.058056    63Ap     4.076491    31App    4.170605
      64Ap     4.200613    65Ap     4.271269    32App    4.300786
      66Ap     4.376781    33App    4.392734    67Ap     4.437258
      34App    4.438794    68Ap     4.574862    69Ap     4.781457
      70Ap     4.957226    35App    5.152980    71Ap     5.176355
      72Ap     5.307285    73Ap     5.368585    36App    5.522777
      74Ap     5.690453    75Ap     6.193950    37App    6.310247
      76Ap     6.310290    38App    6.372457    77Ap     6.375203
      39App    6.519098    78Ap     6.527399    79Ap     6.555323
      80Ap     6.633253    40App    6.723937    81Ap     6.812211
      41App    6.818323    82Ap     6.909656    42App    6.933335
      83Ap     6.965871    84Ap     7.049180    43App    7.146088
      44App    7.274464    45App    7.323655    85Ap     7.324408
      86Ap     7.357255    46App    7.441477    87Ap     7.656129
      88Ap     7.944093    89Ap     7.963833    90Ap     8.803832
      91Ap     9.378845    92Ap    16.488127

    Beta Occupied:

       1Ap   -20.656143     2Ap   -20.558795     3Ap    -1.342663
       4Ap    -1.101764     5Ap    -0.708341     6Ap    -0.580679
       7Ap    -0.542086     1App   -0.501562

    Beta Virtual:

       8Ap     0.034225     9Ap     0.046045     2App    0.047648
      10Ap     0.057661    11Ap     0.144180    12Ap     0.150971
       3App    0.160434    13Ap     0.179864    14Ap     0.210206
      15Ap     0.217756     4App    0.225910    16Ap     0.250975
      17Ap     0.273905     5App    0.282757    18Ap     0.295454
       6App    0.326980    19Ap     0.375327    20Ap     0.402981
      21Ap     0.460765    22Ap     0.561789     7App    0.632342
      23Ap     0.638842    24Ap     0.647065    25Ap     0.671123
      26Ap     0.712985     8App    0.725820     9App    0.735879
      10App    0.748684    27Ap     0.784054    28Ap     0.808798
      29Ap     0.857006    11App    0.867200    30Ap     0.918046
      12App    0.935678    31Ap     0.943502    13App    0.949718
      32Ap     0.953656    33Ap     0.974370    34Ap     1.015483
      14App    1.024999    35Ap     1.047211    36Ap     1.152923
      37Ap     1.176652    15App    1.180865    38Ap     1.219403
      16App    1.269142    39Ap     1.274943    40Ap     1.332903
      17App    1.529110    41Ap     1.562148    18App    1.602005
      42Ap     1.715443    43Ap     1.821651    44Ap     1.832046
      45Ap     2.004294    19App    2.013709    46Ap     2.013919
      20App    2.052409    47Ap     2.065388    21App    2.169739
      22App    2.179464    48Ap     2.179685    49Ap     2.203011
      50Ap     2.225749    23App    2.247583    24App    2.296123
      51Ap     2.315288    52Ap     2.342880    53Ap     2.421277
      25App    2.450048    54Ap     2.462787    26App    2.530858
      55Ap     2.541673    56Ap     2.635027    57Ap     2.677077
      27App    2.730478    58Ap     2.757760    59Ap     2.869901
      60Ap     2.945961    28App    2.946714    61Ap     3.698755
      62Ap     3.893077    29App    4.033790    30App    4.144494
      63Ap     4.181529    64Ap     4.241824    31App    4.254073
      65Ap     4.293908    32App    4.301144    66Ap     4.392217
      33App    4.392919    34App    4.440357    67Ap     4.467462
      68Ap     4.575822    69Ap     4.782881    70Ap     4.959517
      35App    5.152965    71Ap     5.176885    72Ap     5.307502
      73Ap     5.369604    36App    5.522858    74Ap     5.691081
      75Ap     6.194415    37App    6.419210    76Ap     6.419237
      38App    6.447886    77Ap     6.450738    78Ap     6.533942
      39App    6.574079    79Ap     6.604830    80Ap     6.679423
      40App    6.728158    81Ap     6.911312    41App    7.004476
      82Ap     7.005343    42App    7.041406    83Ap     7.071006
      84Ap     7.129560    43App    7.148535    44App    7.274936
      45App    7.324483    85Ap     7.324534    86Ap     7.357727
      46App    7.441924    87Ap     7.657467    88Ap     7.944384
      89Ap     7.964026    90Ap     8.806304    91Ap     9.453438
      92Ap    16.488691

    Final Occupation by Irrep:
             Ap   App
    DOCC [     7,    1 ]
    SOCC [     1,    1 ]

  @UHF Final Energy:  -150.87433091070210

   => Energetics <=

    Nuclear Repulsion Energy =             22.8124351015830200
    One-Electron Energy =                -253.4103940981284211
    Two-Electron Energy =                  79.7236280858433162
    Total Energy =                       -150.8743309107020991

  UHF NO Occupations:
  HONO-2 :    7 Ap 1.9970293
  HONO-1 :    8 Ap 1.0000000
  HONO-0 :    2App 1.0000000
  LUNO+0 :    9 Ap 0.0029707
  LUNO+1 :   10 Ap 0.0017143
  LUNO+2 :   11 Ap 0.0000024
  LUNO+3 :   12 Ap 0.0000019

Computation Completed

Properties will be evaluated at   0.000000,   0.000000,   0.000000 [a0]

Properties computed using the SCF density matrix

  Nuclear Dipole Moment: [e a0]
     X:    -2.1928      Y:     0.8294      Z:     0.0000

  Electronic Dipole Moment: [e a0]
     X:     2.7583      Y:    -0.2133      Z:     0.0000

  Dipole Moment: [e a0]
     X:     0.5655      Y:     0.6160      Z:     0.0000     Total:     0.8362

  Dipole Moment: [D]
     X:     1.4373      Y:     1.5658      Z:     0.0000     Total:     2.1254

*** tstop() called on c5-3.compute.lan at Tue Mar  9 14:51:34 2021
Module time:
	user time   =      60.44 seconds =       1.01 minutes
	system time =       0.88 seconds =       0.01 minutes
	total time  =          6 seconds =       0.10 minutes
Total time:
	user time   =      60.44 seconds =       1.01 minutes
	system time =       0.88 seconds =       0.01 minutes
	total time  =          6 seconds =       0.10 minutes
 MINTS: Wrapper to libmints.
   by Justin Turney

   Calculation information:
      Number of threads:                12
      Number of atoms:                   4
      Number of AO shells:              46
      Number of SO shells:              46
      Number of primitives:             82
      Number of atomic orbitals:       160
      Number of basis functions:       138

      Number of irreps:                  2
      Integral cutoff                 0.00e+00
      Number of functions per irrep: [  92   46 ]

 OEINTS: Overlap, kinetic, potential, dipole, and quadrupole integrals
         stored in file 35.

      Computing two-electron integrals...done
      Computed 22945331 non-zero two-electron integrals.
        Stored in file 33.

*** tstart() called on c5-3.compute.lan
*** at Tue Mar  9 14:51:37 2021

	Wfn Parameters:
	--------------------
	Wavefunction         = CCSD_T
	Number of irreps     = 2
	Number of MOs        = 138
	Number of active MOs = 136
	AO-Basis             = NONE
	Semicanonical        = false
	Reference            = UHF
	Print Level          = 1

	IRREP	# MOs	# FZDC	# DOCC	# SOCC	# VIRT	# FZVR
	-----	-----	------	------	------	------	------
	 Ap	   92	    2	    5	    1	    84	    0
	 App	   46	    0	    1	    1	    44	    0
	Transforming integrals...
	IWL integrals will be deleted.
	(OO|OO)...
	Presorting SO-basis two-electron integrals.
	Sorting File: SO Ints (nn|nn) nbuckets = 1
	Transforming the one-electron integrals and constructing Fock matrices
	Starting AA/AB first half-transformation.
	Sorting AA/AB half-transformed integrals.
	Starting BB first half-transformation.
	Sorting BB half-transformed integrals.
	First half integral transformation complete.
	Starting AA second half-transformation.
	Starting AB second half-transformation.
	Starting BB second half-transformation.
	Two-electron integral transformation complete.
	(OO|OV)...
	Starting AA second half-transformation.
	Starting AB second half-transformation.
	Starting BB second half-transformation.
	Two-electron integral transformation complete.
	(OO|VV)...
	Starting AA second half-transformation.
	Starting AB second half-transformation.
	Starting BB second half-transformation.
	Two-electron integral transformation complete.
	(OV|OO)...
	Starting AA/AB first half-transformation.
	Sorting AA/AB half-transformed integrals.
	Starting BB first half-transformation.
	Sorting BB half-transformed integrals.
	First half integral transformation complete.
	Starting AA second half-transformation.
	Starting AB second half-transformation.
	Starting BB second half-transformation.
	Two-electron integral transformation complete.
	(OV|OV)...
	Starting AA second half-transformation.
	Starting AB second half-transformation.
	Starting BB second half-transformation.
	Two-electron integral transformation complete.
	(OV|VV)...
	Starting AA second half-transformation.
	Starting AB second half-transformation.
	Starting BB second half-transformation.
	Two-electron integral transformation complete.
	(VV|OO)...
	Starting AA/AB first half-transformation.
	Sorting AA/AB half-transformed integrals.
	Starting BB first half-transformation.
	Sorting BB half-transformed integrals.
	First half integral transformation complete.
	Starting AA second half-transformation.
	Starting AB second half-transformation.
	Starting BB second half-transformation.
	Two-electron integral transformation complete.
	(VV|OV)...
	Starting AA second half-transformation.
	Starting AB second half-transformation.
	Starting BB second half-transformation.
	Two-electron integral transformation complete.
	(VV|VV)...
	Starting AA second half-transformation.
	Starting AB second half-transformation.
	Starting BB second half-transformation.
	Two-electron integral transformation complete.
	Frozen core energy     =   -125.81361016605743

	Size of irrep 0 of <AB|CD> integrals:     19.643 (MW) /    157.141 (MB)
	Size of irrep 1 of <AB|CD> integrals:     13.660 (MW) /    109.283 (MB)
	Total:                                    33.303 (MW) /    266.424 (MB)

	Size of irrep 0 of <ab|cd> integrals:     20.794 (MW) /    166.349 (MB)
	Size of irrep 1 of <ab|cd> integrals:     14.631 (MW) /    117.045 (MB)
	Total:                                    35.424 (MW) /    283.394 (MB)

	Size of irrep 0 of <Ab|Cd> integrals:     83.174 (MW) /    665.395 (MB)
	Size of irrep 1 of <Ab|Cd> integrals:     56.550 (MW) /    452.403 (MB)
	Total:                                   139.725 (MW) /   1117.798 (MB)

	Size of irrep 0 of <IA|BC> integrals:      5.323 (MW) /     42.586 (MB)
	Size of irrep 1 of <IA|BC> integrals:      3.193 (MW) /     25.547 (MB)
	Total:                                     8.517 (MW) /     68.133 (MB)

	Size of irrep 0 of <ia|bc> integrals:      4.348 (MW) /     34.780 (MB)
	Size of irrep 1 of <ia|bc> integrals:      2.372 (MW) /     18.972 (MB)
	Total:                                     6.719 (MW) /     53.752 (MB)

	Size of irrep 0 of <Ia|Bc> integrals:      5.472 (MW) /     43.776 (MB)
	Size of irrep 1 of <Ia|Bc> integrals:      3.309 (MW) /     26.470 (MB)
	Total:                                     8.781 (MW) /     70.246 (MB)

	Size of irrep 0 of <iA|bC> integrals:      4.232 (MW) /     33.853 (MB)
	Size of irrep 1 of <iA|bC> integrals:      2.286 (MW) /     18.289 (MB)
	Total:                                     6.518 (MW) /     52.142 (MB)

	Size of irrep 0 of tIjAb amplitudes:       0.292 (MW) /      2.335 (MB)
	Size of irrep 1 of tIjAb amplitudes:       0.120 (MW) /      0.963 (MB)
	Total:                                     0.412 (MW) /      3.297 (MB)

	Nuclear Rep. energy          =     22.81243510158302
	SCF energy                   =   -150.87433091070210
	One-electron energy          =    -84.29169053998027
	Two-electron (AA) energy     =     10.11752461268301
	Two-electron (BB) energy     =      5.38308589767594
	Two-electron (AB) energy     =     20.91792418339213
	Two-electron energy          =     36.41853469375108
	Reference energy             =   -150.87433091070358

*** tstop() called on c5-3.compute.lan at Tue Mar  9 14:52:08 2021
Module time:
	user time   =     106.10 seconds =       1.77 minutes
	system time =      16.04 seconds =       0.27 minutes
	total time  =         31 seconds =       0.52 minutes
Total time:
	user time   =     172.89 seconds =       2.88 minutes
	system time =      17.53 seconds =       0.29 minutes
	total time  =         40 seconds =       0.67 minutes
            **************************
            *                        *
            *        CCENERGY        *
            *                        *
            **************************

    Nuclear Rep. energy (wfn)     =   22.812435101583020
    SCF energy          (wfn)     = -150.874330910702099
    Reference energy    (file100) = -150.874330910703577

    Input parameters:
    -----------------
    Wave function   =     CCSD_T
    Reference wfn   =     UHF
    Brueckner       =     No
    Memory (Mbytes) =     4000.0
    Maxiter         =     50
    R_Convergence   =     1.0e-10
    E_Convergence   =     1.0e-10
    Restart         =     Yes
    DIIS            =     Yes
    AO Basis        =     NONE
    ABCD            =     NEW
    Cache Level     =     2
    Cache Type      =     LRU
    Print Level     =     1
    Num. of threads =     12
    # Amps to Print =     10
    Print MP2 Amps? =     No
    Analyze T2 Amps =     No
    Print Pair Ener =     No
    Local CC        =     No
    SCS-MP2         =     False
    SCSN-MP2        =     False
    SCS-CCSD        =     False

MP2 correlation energy -0.4166580152264270
                Solving CC Amplitude Equations
                ------------------------------
  Iter             Energy              RMS        T1Diag      D1Diag    New D1Diag    D2Diag
  ----     ---------------------    ---------   ----------  ----------  ----------   --------
     0        -0.416658015226427    0.000e+00    0.000000    0.000000    0.000000    0.000000
     1        -0.427364720261838    5.691e-02    0.010551    0.000000    0.000000    0.000000
     2        -0.435467735358709    1.690e-02    0.011037    0.000000    0.000000    0.000000
     3        -0.437588142271863    8.580e-03    0.012910    0.000000    0.000000    0.000000
     4        -0.437462993248328    2.536e-03    0.013277    0.000000    0.000000    0.000000
     5        -0.437447979140802    1.326e-03    0.013434    0.000000    0.000000    0.000000
     6        -0.437475219846301    5.163e-04    0.013457    0.000000    0.000000    0.000000
     7        -0.437480030997365    2.670e-04    0.013452    0.000000    0.000000    0.000000
     8        -0.437480607074838    9.592e-05    0.013447    0.000000    0.000000    0.000000
     9        -0.437482015358431    6.857e-05    0.013448    0.000000    0.000000    0.000000
    10        -0.437480468356803    5.729e-05    0.013449    0.000000    0.000000    0.000000
    11        -0.437480593323919    5.410e-05    0.013450    0.000000    0.000000    0.000000
    12        -0.437480397876101    5.240e-05    0.013452    0.000000    0.000000    0.000000
    13        -0.437480383039579    5.146e-05    0.013454    0.000000    0.000000    0.000000
    14        -0.437481278196874    5.020e-05    0.013463    0.000000    0.000000    0.000000
    15        -0.437481603956562    4.595e-05    0.013507    0.000000    0.000000    0.000000
    16        -0.437481376792332    3.343e-05    0.013623    0.000000    0.000000    0.000000
    17        -0.437481089552492    1.708e-05    0.013695    0.000000    0.000000    0.000000
    18        -0.437480944065882    8.034e-06    0.013716    0.000000    0.000000    0.000000
    19        -0.437481190083233    3.529e-06    0.013721    0.000000    0.000000    0.000000
    20        -0.437481308346971    1.554e-06    0.013722    0.000000    0.000000    0.000000
    21        -0.437481314929486    6.167e-07    0.013722    0.000000    0.000000    0.000000
    22        -0.437481315931172    2.773e-07    0.013723    0.000000    0.000000    0.000000
    23        -0.437481315298919    1.388e-07    0.013723    0.000000    0.000000    0.000000
    24        -0.437481314567508    5.300e-08    0.013723    0.000000    0.000000    0.000000
    25        -0.437481315460320    2.621e-08    0.013723    0.000000    0.000000    0.000000
    26        -0.437481315884034    1.816e-08    0.013723    0.000000    0.000000    0.000000
    27        -0.437481316006852    1.645e-08    0.013723    0.000000    0.000000    0.000000
    28        -0.437481315985937    1.586e-08    0.013723    0.000000    0.000000    0.000000
    29        -0.437481315895638    1.544e-08    0.013723    0.000000    0.000000    0.000000
    30        -0.437481315716895    1.493e-08    0.013723    0.000000    0.000000    0.000000
    31        -0.437481315751157    1.341e-08    0.013723    0.000000    0.000000    0.000000
    32        -0.437481315985625    8.504e-09    0.013723    0.000000    0.000000    0.000000
    33        -0.437481316070741    3.924e-09    0.013723    0.000000    0.000000    0.000000
    34        -0.437481316124429    1.682e-09    0.013723    0.000000    0.000000    0.000000
    35        -0.437481316131067    6.618e-10    0.013723    0.000000    0.000000    0.000000
    36        -0.437481316130067    2.639e-10    0.013723    0.000000    0.000000    0.000000

      * MP2 total energy                      = -151.290988925930009
      * CCSD total energy                     = -151.311812226832899
      * CCSD(T) total energy                     = -151.324177200393905
*** Psi4 exiting successfully. Buy a developer a beer!
