                               Psi4 1.3.2 release

  ==> Input File <==

--------------------------------------------------------------------------
memory 4 GB

molecule  {
0 3
O   -1.504262362686   -0.001191472503    0.000000000000
H   -0.554378845086    0.158870372744    0.000000000000
H   -1.894861396719    0.875878515573    0.000000000000
O    1.658586764181   -0.064007114456    0.000000000000
}
set {
basis aug-cc-pvtz
reference uhf
e_convergence 10
scf_type pk
freeze_core true
}

set ccenergy {
e_convergence 10
r_convergence 10
}

e = energy('ccsd(t)')

print_out('Stephenergy {}'.format(e))

--------------------------------------------------------------------------

    Molecular point group: cs

    Geometry (in Angstrom), charge = 0, multiplicity = 3:

       Center              X                  Y                   Z               Mass
    ------------   -----------------  -----------------  -----------------  -----------------
         O           -1.504262362686    -0.001191472503     0.000000000000    15.994914619570
         H           -0.554378845086     0.158870372744     0.000000000000     1.007825032230
         H           -1.894861396719     0.875878515573     0.000000000000     1.007825032230
         O            1.658586764181    -0.064007114456     0.000000000000    15.994914619570

  Charge       = 0
  Multiplicity = 3
  Basis Set: AUG-CC-PVTZ
    Blend: AUG-CC-PVTZ

    Orbital Energies [Eh]
    ---------------------

    Alpha Occupied:

       1Ap   -20.733026     2Ap   -20.558726     3Ap    -1.442356
       4Ap    -1.343206     5Ap    -0.733140     1App   -0.732752
       6Ap    -0.710317     7Ap    -0.634433     8Ap    -0.575179
       2App   -0.501966

    Alpha Virtual:

       9Ap     0.034209    10Ap     0.053482    11Ap     0.128194
       3App    0.132954    12Ap     0.148139    13Ap     0.160801
      14Ap     0.183962     4App    0.186813    15Ap     0.214119
      16Ap     0.241978    17Ap     0.264317     5App    0.286535
      18Ap     0.304019     6App    0.320529    19Ap     0.364181
      20Ap     0.406592    21Ap     0.460724    22Ap     0.568652
       7App    0.602682    23Ap     0.608710    24Ap     0.626835
      25Ap     0.682391     8App    0.709380    26Ap     0.714661
       9App    0.736708    10App    0.748794    27Ap     0.750270
      28Ap     0.811692    11App    0.826074    29Ap     0.837248
      12App    0.891047    30Ap     0.892586    31Ap     0.922637
      32Ap     0.945256    13App    0.947549    33Ap     0.951464
      14App    0.971774    34Ap     0.978474    35Ap     1.043697
      36Ap     1.136052    15App    1.153586    37Ap     1.169821
      38Ap     1.184897    39Ap     1.260981    16App    1.295324
      40Ap     1.316236    17App    1.527574    41Ap     1.586845
      18App    1.597906    42Ap     1.716568    43Ap     1.809700
      44Ap     1.843499    45Ap     1.977607    19App    1.977774
      46Ap     1.978982    20App    2.013269    47Ap     2.018086
      21App    2.048478    48Ap     2.061273    22App    2.122529
      49Ap     2.152797    50Ap     2.175818    23App    2.212600
      24App    2.303239    51Ap     2.310278    52Ap     2.339308
      53Ap     2.414835    25App    2.441081    54Ap     2.459833
      55Ap     2.489742    26App    2.526813    56Ap     2.628984
      57Ap     2.708919    27App    2.727235    58Ap     2.735640
      59Ap     2.861000    60Ap     2.932190    28App    2.943671
      61Ap     3.697488    62Ap     3.890908    29App    4.036642
      30App    4.063203    63Ap     4.074290    31App    4.178062
      64Ap     4.208429    65Ap     4.265973    32App    4.301631
      33App    4.391284    66Ap     4.407368    34App    4.430102
      67Ap     4.446149    68Ap     4.603456    69Ap     4.780484
      70Ap     4.959687    35App    5.156471    71Ap     5.173107
      72Ap     5.298236    73Ap     5.391635    36App    5.527095
      74Ap     5.690597    75Ap     6.189933    37App    6.312414
      76Ap     6.312446    38App    6.375558    77Ap     6.378233
      39App    6.518008    78Ap     6.519466    79Ap     6.559138
      80Ap     6.637020    40App    6.736158    81Ap     6.814560
      41App    6.820062    82Ap     6.923092    42App    6.936871
      83Ap     6.961671    84Ap     7.050968    43App    7.148602
      44App    7.272630    85Ap     7.326242    45App    7.326767
      86Ap     7.364012    46App    7.434777    87Ap     7.647420
      88Ap     7.944869    89Ap     7.963149    90Ap     8.812999
      91Ap     9.517202    92Ap    16.308224

    Beta Occupied:

       1Ap   -20.654240     2Ap   -20.558856     3Ap    -1.343778
       4Ap    -1.099889     5Ap    -0.709539     6Ap    -0.580143
       7Ap    -0.541199     1App   -0.502010

    Beta Virtual:

       8Ap     0.034371     2App    0.049397     9Ap     0.049662
      10Ap     0.055171    11Ap     0.143795    12Ap     0.153014
       3App    0.161243    13Ap     0.178100    14Ap     0.207794
      15Ap     0.225558     4App    0.227212    16Ap     0.250679
      17Ap     0.265556     5App    0.286742    18Ap     0.306148
       6App    0.324259    19Ap     0.368076    20Ap     0.417506
      21Ap     0.461991    22Ap     0.572234    23Ap     0.627572
       7App    0.635078    24Ap     0.640480    25Ap     0.687223
      26Ap     0.715329     8App    0.721439     9App    0.739887
      10App    0.750464    27Ap     0.766674    28Ap     0.818074
      29Ap     0.868730    11App    0.869202    30Ap     0.919965
      31Ap     0.941856    12App    0.941882    13App    0.949668
      32Ap     0.952825    33Ap     0.969879    34Ap     1.017709
      14App    1.020209    35Ap     1.045837    15App    1.156733
      36Ap     1.164005    37Ap     1.172934    38Ap     1.216172
      39Ap     1.264114    16App    1.305917    40Ap     1.324959
      17App    1.528299    41Ap     1.589048    18App    1.599325
      42Ap     1.742766    43Ap     1.815222    44Ap     1.854179
      45Ap     1.987040    46Ap     2.015732    19App    2.015744
      20App    2.053811    47Ap     2.065918    21App    2.170690
      48Ap     2.176180    22App    2.179629    49Ap     2.193685
      50Ap     2.244587    23App    2.249876    24App    2.306643
      51Ap     2.315790    52Ap     2.362003    53Ap     2.419296
      25App    2.443810    54Ap     2.460627    55Ap     2.496046
      26App    2.535250    56Ap     2.636174    57Ap     2.726165
      27App    2.728551    58Ap     2.738827    59Ap     2.862826
      60Ap     2.936636    28App    2.944297    61Ap     3.698178
      62Ap     3.893256    29App    4.039768    30App    4.146744
      63Ap     4.193561    64Ap     4.243819    31App    4.262702
      65Ap     4.276911    32App    4.301693    33App    4.391354
      66Ap     4.410909    34App    4.430753    67Ap     4.490670
      68Ap     4.605979    69Ap     4.782171    70Ap     4.961649
      35App    5.156458    71Ap     5.173399    72Ap     5.298480
      73Ap     5.392841    36App    5.527153    74Ap     5.690941
      75Ap     6.191204    76Ap     6.421262    37App    6.421267
      38App    6.450751    77Ap     6.453431    78Ap     6.534398
      39App    6.571877    79Ap     6.600096    80Ap     6.681946
      40App    6.742119    81Ap     6.925399    41App    7.005133
      82Ap     7.006827    42App    7.046085    83Ap     7.068231
      84Ap     7.130707    43App    7.151163    44App    7.272897
      85Ap     7.326570    45App    7.327446    86Ap     7.364782
      46App    7.435186    87Ap     7.648244    88Ap     7.945806
      89Ap     7.963591    90Ap     8.814551    91Ap     9.592205
      92Ap    16.308485

    Final Occupation by Irrep:
             Ap   App
    DOCC [     7,    1 ]
    SOCC [     1,    1 ]

  @UHF Final Energy:  -150.87449286204614

   => Energetics <=

    Nuclear Repulsion Energy =             22.9130741687458688
    One-Electron Energy =                -253.6203803705893165
    Two-Electron Energy =                  79.8328133397972977
    Total Energy =                       -150.8744928620461394

  UHF NO Occupations:
  HONO-2 :    7 Ap 1.9970282
  HONO-1 :    8 Ap 1.0000000
  HONO-0 :    2App 1.0000000
  LUNO+0 :    9 Ap 0.0029718
  LUNO+1 :   10 Ap 0.0017162
  LUNO+2 :   11 Ap 0.0000024
  LUNO+3 :   12 Ap 0.0000017

Computation Completed

Properties will be evaluated at   0.000000,   0.000000,   0.000000 [a0]

Properties computed using the SCF density matrix

  Nuclear Dipole Moment: [e a0]
     X:    -2.2953      Y:     0.9697      Z:     0.0000

  Electronic Dipole Moment: [e a0]
     X:     2.7573      Y:    -0.2939      Z:     0.0000

  Dipole Moment: [e a0]
     X:     0.4619      Y:     0.6758      Z:     0.0000     Total:     0.8186

  Dipole Moment: [D]
     X:     1.1741      Y:     1.7177      Z:     0.0000     Total:     2.0806

*** tstop() called on d3-3.compute.lan at Tue Mar  9 15:46:39 2021
Module time:
	user time   =      56.82 seconds =       0.95 minutes
	system time =       3.04 seconds =       0.05 minutes
	total time  =          6 seconds =       0.10 minutes
Total time:
	user time   =      56.82 seconds =       0.95 minutes
	system time =       3.04 seconds =       0.05 minutes
	total time  =          6 seconds =       0.10 minutes
 MINTS: Wrapper to libmints.
   by Justin Turney

   Calculation information:
      Number of threads:                12
      Number of atoms:                   4
      Number of AO shells:              46
      Number of SO shells:              46
      Number of primitives:             82
      Number of atomic orbitals:       160
      Number of basis functions:       138

      Number of irreps:                  2
      Integral cutoff                 0.00e+00
      Number of functions per irrep: [  92   46 ]

 OEINTS: Overlap, kinetic, potential, dipole, and quadrupole integrals
         stored in file 35.

      Computing two-electron integrals...done
      Computed 22919589 non-zero two-electron integrals.
        Stored in file 33.

*** tstart() called on d3-3.compute.lan
*** at Tue Mar  9 15:46:43 2021

	Wfn Parameters:
	--------------------
	Wavefunction         = CCSD_T
	Number of irreps     = 2
	Number of MOs        = 138
	Number of active MOs = 136
	AO-Basis             = NONE
	Semicanonical        = false
	Reference            = UHF
	Print Level          = 1

	IRREP	# MOs	# FZDC	# DOCC	# SOCC	# VIRT	# FZVR
	-----	-----	------	------	------	------	------
	 Ap	   92	    2	    5	    1	    84	    0
	 App	   46	    0	    1	    1	    44	    0
	Transforming integrals...
	IWL integrals will be deleted.
	(OO|OO)...
	Presorting SO-basis two-electron integrals.
	Sorting File: SO Ints (nn|nn) nbuckets = 1
	Transforming the one-electron integrals and constructing Fock matrices
	Starting AA/AB first half-transformation.
	Sorting AA/AB half-transformed integrals.
	Starting BB first half-transformation.
	Sorting BB half-transformed integrals.
	First half integral transformation complete.
	Starting AA second half-transformation.
	Starting AB second half-transformation.
	Starting BB second half-transformation.
	Two-electron integral transformation complete.
	(OO|OV)...
	Starting AA second half-transformation.
	Starting AB second half-transformation.
	Starting BB second half-transformation.
	Two-electron integral transformation complete.
	(OO|VV)...
	Starting AA second half-transformation.
	Starting AB second half-transformation.
	Starting BB second half-transformation.
	Two-electron integral transformation complete.
	(OV|OO)...
	Starting AA/AB first half-transformation.
	Sorting AA/AB half-transformed integrals.
	Starting BB first half-transformation.
	Sorting BB half-transformed integrals.
	First half integral transformation complete.
	Starting AA second half-transformation.
	Starting AB second half-transformation.
	Starting BB second half-transformation.
	Two-electron integral transformation complete.
	(OV|OV)...
	Starting AA second half-transformation.
	Starting AB second half-transformation.
	Starting BB second half-transformation.
	Two-electron integral transformation complete.
	(OV|VV)...
	Starting AA second half-transformation.
	Starting AB second half-transformation.
	Starting BB second half-transformation.
	Two-electron integral transformation complete.
	(VV|OO)...
	Starting AA/AB first half-transformation.
	Sorting AA/AB half-transformed integrals.
	Starting BB first half-transformation.
	Sorting BB half-transformed integrals.
	First half integral transformation complete.
	Starting AA second half-transformation.
	Starting AB second half-transformation.
	Starting BB second half-transformation.
	Two-electron integral transformation complete.
	(VV|OV)...
	Starting AA second half-transformation.
	Starting AB second half-transformation.
	Starting BB second half-transformation.
	Two-electron integral transformation complete.
	(VV|VV)...
	Starting AA second half-transformation.
	Starting AB second half-transformation.
	Starting BB second half-transformation.
	Two-electron integral transformation complete.
	Frozen core energy     =   -125.85952663412797

	Size of irrep 0 of <AB|CD> integrals:     19.643 (MW) /    157.141 (MB)
	Size of irrep 1 of <AB|CD> integrals:     13.660 (MW) /    109.283 (MB)
	Total:                                    33.303 (MW) /    266.424 (MB)

	Size of irrep 0 of <ab|cd> integrals:     20.794 (MW) /    166.349 (MB)
	Size of irrep 1 of <ab|cd> integrals:     14.631 (MW) /    117.045 (MB)
	Total:                                    35.424 (MW) /    283.394 (MB)

	Size of irrep 0 of <Ab|Cd> integrals:     83.174 (MW) /    665.395 (MB)
	Size of irrep 1 of <Ab|Cd> integrals:     56.550 (MW) /    452.403 (MB)
	Total:                                   139.725 (MW) /   1117.798 (MB)

	Size of irrep 0 of <IA|BC> integrals:      5.323 (MW) /     42.586 (MB)
	Size of irrep 1 of <IA|BC> integrals:      3.193 (MW) /     25.547 (MB)
	Total:                                     8.517 (MW) /     68.133 (MB)

	Size of irrep 0 of <ia|bc> integrals:      4.348 (MW) /     34.780 (MB)
	Size of irrep 1 of <ia|bc> integrals:      2.372 (MW) /     18.972 (MB)
	Total:                                     6.719 (MW) /     53.752 (MB)

	Size of irrep 0 of <Ia|Bc> integrals:      5.472 (MW) /     43.776 (MB)
	Size of irrep 1 of <Ia|Bc> integrals:      3.309 (MW) /     26.470 (MB)
	Total:                                     8.781 (MW) /     70.246 (MB)

	Size of irrep 0 of <iA|bC> integrals:      4.232 (MW) /     33.853 (MB)
	Size of irrep 1 of <iA|bC> integrals:      2.286 (MW) /     18.289 (MB)
	Total:                                     6.518 (MW) /     52.142 (MB)

	Size of irrep 0 of tIjAb amplitudes:       0.292 (MW) /      2.335 (MB)
	Size of irrep 1 of tIjAb amplitudes:       0.120 (MW) /      0.963 (MB)
	Total:                                     0.412 (MW) /      3.297 (MB)

	Nuclear Rep. energy          =     22.91307416874587
	SCF energy                   =   -150.87449286204614
	One-electron energy          =    -84.40617513664343
	Two-electron (AA) energy     =     10.13700490167268
	Two-electron (BB) energy     =      5.39262215954512
	Two-electron (AB) energy     =     20.94850767876008
	Two-electron energy          =     36.47813473997788
	Reference energy             =   -150.87449286204765

*** tstop() called on d3-3.compute.lan at Tue Mar  9 15:47:30 2021
Module time:
	user time   =     289.28 seconds =       4.82 minutes
	system time =      23.19 seconds =       0.39 minutes
	total time  =         47 seconds =       0.78 minutes
Total time:
	user time   =     353.13 seconds =       5.89 minutes
	system time =      27.15 seconds =       0.45 minutes
	total time  =         57 seconds =       0.95 minutes
            **************************
            *                        *
            *        CCENERGY        *
            *                        *
            **************************

    Nuclear Rep. energy (wfn)     =   22.913074168745869
    SCF energy          (wfn)     = -150.874492862046139
    Reference energy    (file100) = -150.874492862047646

    Input parameters:
    -----------------
    Wave function   =     CCSD_T
    Reference wfn   =     UHF
    Brueckner       =     No
    Memory (Mbytes) =     4000.0
    Maxiter         =     50
    R_Convergence   =     1.0e-10
    E_Convergence   =     1.0e-10
    Restart         =     Yes
    DIIS            =     Yes
    AO Basis        =     NONE
    ABCD            =     NEW
    Cache Level     =     2
    Cache Type      =     LRU
    Print Level     =     1
    Num. of threads =     12
    # Amps to Print =     10
    Print MP2 Amps? =     No
    Analyze T2 Amps =     No
    Print Pair Ener =     No
    Local CC        =     No
    SCS-MP2         =     False
    SCSN-MP2        =     False
    SCS-CCSD        =     False

MP2 correlation energy -0.4165929339730112
                Solving CC Amplitude Equations
                ------------------------------
  Iter             Energy              RMS        T1Diag      D1Diag    New D1Diag    D2Diag
  ----     ---------------------    ---------   ----------  ----------  ----------   --------
     0        -0.416592933973011    0.000e+00    0.000000    0.000000    0.000000    0.000000
     1        -0.427317456176446    5.687e-02    0.010550    0.000000    0.000000    0.000000
     2        -0.435403391464096    1.689e-02    0.011029    0.000000    0.000000    0.000000
     3        -0.437524061085019    8.571e-03    0.012900    0.000000    0.000000    0.000000
     4        -0.437398195245345    2.535e-03    0.013267    0.000000    0.000000    0.000000
     5        -0.437383766982786    1.320e-03    0.013423    0.000000    0.000000    0.000000
     6        -0.437410998933875    5.147e-04    0.013445    0.000000    0.000000    0.000000
     7        -0.437415625022106    2.644e-04    0.013439    0.000000    0.000000    0.000000
     8        -0.437416225985871    9.946e-05    0.013435    0.000000    0.000000    0.000000
     9        -0.437417595352210    7.422e-05    0.013436    0.000000    0.000000    0.000000
    10        -0.437416039055078    6.414e-05    0.013437    0.000000    0.000000    0.000000
    11        -0.437416185642932    6.130e-05    0.013438    0.000000    0.000000    0.000000
    12        -0.437415895945275    5.961e-05    0.013440    0.000000    0.000000    0.000000
    13        -0.437415888554996    5.847e-05    0.013444    0.000000    0.000000    0.000000
    14        -0.437417064996490    5.659e-05    0.013462    0.000000    0.000000    0.000000
    15        -0.437417442945591    5.004e-05    0.013535    0.000000    0.000000    0.000000
    16        -0.437417219522096    3.343e-05    0.013674    0.000000    0.000000    0.000000
    17        -0.437416873021588    1.614e-05    0.013743    0.000000    0.000000    0.000000
    18        -0.437416743720921    7.569e-06    0.013760    0.000000    0.000000    0.000000
    19        -0.437417003004566    3.346e-06    0.013765    0.000000    0.000000    0.000000
    20        -0.437417114468082    1.500e-06    0.013766    0.000000    0.000000    0.000000
    21        -0.437417122458162    5.906e-07    0.013766    0.000000    0.000000    0.000000
    22        -0.437417123728950    2.805e-07    0.013766    0.000000    0.000000    0.000000
    23        -0.437417122614328    1.457e-07    0.013766    0.000000    0.000000    0.000000
    24        -0.437417121942174    6.053e-08    0.013766    0.000000    0.000000    0.000000
    25        -0.437417122904899    3.313e-08    0.013766    0.000000    0.000000    0.000000
    26        -0.437417123364560    2.576e-08    0.013766    0.000000    0.000000    0.000000
    27        -0.437417123523432    2.414e-08    0.013766    0.000000    0.000000    0.000000
    28        -0.437417123470312    2.338e-08    0.013766    0.000000    0.000000    0.000000
    29        -0.437417123304573    2.271e-08    0.013766    0.000000    0.000000    0.000000
    30        -0.437417123036311    2.160e-08    0.013766    0.000000    0.000000    0.000000
    31        -0.437417123239513    1.824e-08    0.013766    0.000000    0.000000    0.000000
    32        -0.437417123585417    9.516e-09    0.013766    0.000000    0.000000    0.000000
    33        -0.437417123687327    4.165e-09    0.013766    0.000000    0.000000    0.000000
    34        -0.437417123738975    1.699e-09    0.013766    0.000000    0.000000    0.000000
    35        -0.437417123745635    6.682e-10    0.013766    0.000000    0.000000    0.000000
    36        -0.437417123745368    2.864e-10    0.013766    0.000000    0.000000    0.000000

      * MP2 total energy                      = -151.291085796020667
      * CCSD total energy                     = -151.311909985792312
      * CCSD(T) total energy                     = -151.324262236366962
*** Psi4 exiting successfully. Buy a developer a beer!
