                               Psi4 1.3.2 release

  ==> Input File <==

--------------------------------------------------------------------------
memory 4 GB

molecule  {
0 3
O    0.000000000000    0.000000000000   -1.261379187500
H    0.000000000000   -0.762389765100   -0.671653124100
H   -0.000000000000    0.762389765100   -0.671653124100
O    0.000000000000   -0.000000000000    1.346019693200
}
set {
basis aug-cc-pvtz
reference uhf
e_convergence 10
scf_type pk
freeze_core true
}

set ccenergy {
e_convergence 10
r_convergence 10
}

e = energy('ccsd(t)')

print_out('Stephenergy {}'.format(e))

--------------------------------------------------------------------------

    Molecular point group: c2v

    Geometry (in Angstrom), charge = 0, multiplicity = 3:

       Center              X                  Y                   Z               Mass
    ------------   -----------------  -----------------  -----------------  -----------------
         O            0.000000000000     0.000000000000    -1.261379187475    15.994914619570
         H            0.000000000000    -0.762389765100    -0.671653124075     1.007825032230
         H           -0.000000000000     0.762389765100    -0.671653124075     1.007825032230
         O            0.000000000000     0.000000000000     1.346019693225    15.994914619570

  Charge       = 0
  Multiplicity = 3
  Basis Set: AUG-CC-PVTZ
    Blend: AUG-CC-PVTZ

    Orbital Energies [Eh]
    ---------------------

    Alpha Occupied:

       1A1   -20.734841     2A1   -20.568062     3A1    -1.448240
       4A1    -1.353165     5A1    -0.746266     1B1    -0.736423
       1B2    -0.717902     2B2    -0.636340     6A1    -0.581262
       2B1    -0.511022

    Alpha Virtual:

       7A1     0.036745     3B2     0.050215     8A1     0.119819
       3B1     0.130671     9A1     0.155598     4B2     0.166282
       4B1     0.189662     5B2     0.190661    10A1     0.192359
       1A2     0.263443    11A1     0.264027     6B2     0.274099
      12A1     0.289419     5B1     0.335543     7B2     0.393702
      13A1     0.403843    14A1     0.453143     8B2     0.475035
       9B2     0.632057     2A2     0.644421     6B1     0.650996
      15A1     0.659240    16A1     0.678518    17A1     0.709811
       3A2     0.723546    18A1     0.735130    10B2     0.766258
       7B1     0.789792     8B1     0.838269    19A1     0.882137
      11B2     0.886896     9B1     0.921764    12B2     0.942671
      20A1     0.978910     4A2     0.980544    21A1     1.024533
      10B1     1.027362    13B2     1.056932    22A1     1.092442
      14B2     1.123211    23A1     1.139781     5A2     1.207154
      11B1     1.219248    24A1     1.238644    15B2     1.250864
      16B2     1.437622     6A2     1.510015    25A1     1.563508
      12B1     1.581475    17B2     1.759255    26A1     1.805090
      27A1     1.848729    18B2     1.948743    13B1     2.004591
      28A1     2.030106    14B1     2.037115     7A2     2.073954
      19B2     2.075279    29A1     2.088219    30A1     2.167357
      15B1     2.169569     8A2     2.178593    20B2     2.204684
      31A1     2.204906     9A2     2.372607    32A1     2.377821
      16B1     2.423454    21B2     2.437527    33A1     2.460327
      17B1     2.510385    22B2     2.521537    34A1     2.538423
      35A1     2.731569    18B1     2.732164    23B2     2.749679
      10A2     2.881532    36A1     2.890245    24B2     2.938283
      25B2     3.677601    37A1     3.813792    11A2     4.032242
      19B1     4.074918    20B1     4.107647    38A1     4.207876
      26B2     4.229026    21B1     4.309054    27B2     4.313402
      12A2     4.380103    22B1     4.441602    39A1     4.452181
      40A1     4.582081    28B2     4.651603    41A1     4.744791
      29B2     4.892627    13A2     5.149569    30B2     5.150505
      31B2     5.271220    42A1     5.359235    23B1     5.509963
      43A1     5.690189    44A1     6.220027    24B1     6.390561
      32B2     6.398780    25B1     6.423019    14A2     6.442688
      45A1     6.462127    33B2     6.530073    46A1     6.585882
      34B2     6.699774    26B1     6.767511    27B1     6.879673
      47A1     6.882147    15A2     6.894692    48A1     6.960929
      49A1     6.981496    35B2     7.006188    28B1     7.165126
      29B1     7.257547    16A2     7.304407    17A2     7.358166
      36B2     7.370970    50A1     7.374102    51A1     7.583058
      37B2     7.939403    52A1     7.978751    38B2     8.787938
      53A1     9.746409    54A1    15.723585

    Beta Occupied:

       1A1   -20.655985     2A1   -20.566681     3A1    -1.350237
       4A1    -1.104596     1B2    -0.716152     5A1    -0.580756
       2B2    -0.546969     1B1    -0.509017

    Beta Virtual:

       6A1     0.037535     2B1     0.046527     3B2     0.050566
       7A1     0.052481     8A1     0.141989     3B1     0.159922
       4B2     0.168257     9A1     0.182326     5B2     0.192921
      10A1     0.193945     4B1     0.226572     1A2     0.263726
      11A1     0.267547     6B2     0.274414    12A1     0.297303
       5B1     0.343588     7B2     0.395925    13A1     0.431735
      14A1     0.457283     8B2     0.475160     9B2     0.631745
       2A2     0.658683     6B1     0.670032    15A1     0.673800
      16A1     0.702746    17A1     0.711854     3A2     0.723899
      10B2     0.782263    18A1     0.791645     7B1     0.817993
      19A1     0.891895    11B2     0.900962     8B1     0.918046
       9B1     0.935057    12B2     0.946521     4A2     0.982505
      20A1     0.984557    21A1     1.034169    10B1     1.057505
      13B2     1.057815    22A1     1.112971    14B2     1.132048
      23A1     1.204523     5A2     1.208306    11B1     1.241247
      24A1     1.250445    15B2     1.251194    16B2     1.443734
       6A2     1.510236    12B1     1.582286    25A1     1.583945
      17B2     1.763514    26A1     1.813792    27A1     1.886910
      18B2     1.951794    13B1     2.028076    28A1     2.088616
      19B2     2.089873    14B1     2.103545    29A1     2.137305
       7A2     2.141617     8A2     2.209979    30A1     2.230225
      31A1     2.235154    15B1     2.253476    20B2     2.274565
       9A2     2.380717    32A1     2.413667    16B1     2.453201
      21B2     2.455300    33A1     2.478885    17B1     2.511254
      22B2     2.529276    34A1     2.550850    18B1     2.733230
      35A1     2.744494    23B2     2.753127    10A2     2.881912
      36A1     2.897863    24B2     2.940008    25B2     3.678232
      37A1     3.824088    11A2     4.031876    19B1     4.107430
      20B1     4.228067    38A1     4.241390    26B2     4.247026
      21B1     4.322825    27B2     4.338535    12A2     4.379774
      22B1     4.446072    39A1     4.482495    28B2     4.654170
      40A1     4.670775    41A1     4.746880    29B2     4.894173
      13A2     5.149791    30B2     5.151783    31B2     5.272301
      42A1     5.361710    23B1     5.510408    43A1     5.691832
      44A1     6.225783    24B1     6.447722    32B2     6.456748
      14A2     6.518789    25B1     6.529726    33B2     6.533713
      45A1     6.537944    46A1     6.663992    34B2     6.763192
      26B1     6.769489    47A1     6.957876    15A2     7.007446
      48A1     7.015882    27B1     7.063313    35B2     7.115159
      49A1     7.118875    28B1     7.168262    29B1     7.260721
      16A2     7.305566    17A2     7.359272    36B2     7.371868
      50A1     7.382451    51A1     7.588929    37B2     7.940872
      52A1     7.981880    38B2     8.789846    53A1     9.818179
      54A1    15.724543

    Final Occupation by Irrep:
             A1    A2    B1    B2
    DOCC [     5,    0,    1,    2 ]
    SOCC [     1,    0,    1,    0 ]

  @UHF Final Energy:  -150.86746632100375

   => Energetics <=

    Nuclear Repulsion Energy =             26.0457965687698305
    One-Electron Energy =                -259.7626105486496044
    Two-Electron Energy =                  82.8493476588760132
    Total Energy =                       -150.8674663210037465

  UHF NO Occupations:
  HONO-2 :    5 A1 1.9970622
  HONO-1 :    6 A1 1.0000000
  HONO-0 :    2 B1 1.0000000
  LUNO+0 :    7 A1 0.0029378
  LUNO+1 :    3 B2 0.0017486
  LUNO+2 :    8 A1 0.0002162
  LUNO+3 :    3 B1 0.0000125

Computation Completed

Properties will be evaluated at   0.000000,   0.000000,   0.000000 [a0]

Properties computed using the SCF density matrix

  Nuclear Dipole Moment: [e a0]
     X:     0.0000      Y:     0.0000      Z:    -1.2589

  Electronic Dipole Moment: [e a0]
     X:     0.0000      Y:     0.0000      Z:     2.0756

  Dipole Moment: [e a0]
     X:     0.0000      Y:     0.0000      Z:     0.8167     Total:     0.8167

  Dipole Moment: [D]
     X:     0.0000      Y:     0.0000      Z:     2.0758     Total:     2.0758

*** tstop() called on b1-8.compute.lan at Wed Mar 10 09:16:06 2021
Module time:
	user time   =      37.84 seconds =       0.63 minutes
	system time =       1.04 seconds =       0.02 minutes
	total time  =          4 seconds =       0.07 minutes
Total time:
	user time   =      37.84 seconds =       0.63 minutes
	system time =       1.04 seconds =       0.02 minutes
	total time  =          4 seconds =       0.07 minutes
 MINTS: Wrapper to libmints.
   by Justin Turney

   Calculation information:
      Number of threads:                12
      Number of atoms:                   4
      Number of AO shells:              46
      Number of SO shells:              37
      Number of primitives:             82
      Number of atomic orbitals:       160
      Number of basis functions:       138

      Number of irreps:                  4
      Integral cutoff                 0.00e+00
      Number of functions per irrep: [  54   17   29   38 ]

 OEINTS: Overlap, kinetic, potential, dipole, and quadrupole integrals
         stored in file 35.

      Computing two-electron integrals...done
      Computed 11322377 non-zero two-electron integrals.
        Stored in file 33.

*** tstart() called on b1-8.compute.lan
*** at Wed Mar 10 09:16:08 2021

	Wfn Parameters:
	--------------------
	Wavefunction         = CCSD_T
	Number of irreps     = 4
	Number of MOs        = 138
	Number of active MOs = 136
	AO-Basis             = NONE
	Semicanonical        = false
	Reference            = UHF
	Print Level          = 1

	IRREP	# MOs	# FZDC	# DOCC	# SOCC	# VIRT	# FZVR
	-----	-----	------	------	------	------	------
	 A1	   54	    2	    3	    1	    48	    0
	 A2	   17	    0	    0	    0	    17	    0
	 B1	   29	    0	    1	    1	    27	    0
	 B2	   38	    0	    2	    0	    36	    0
	Transforming integrals...
	IWL integrals will be deleted.
	(OO|OO)...
	Presorting SO-basis two-electron integrals.
	Sorting File: SO Ints (nn|nn) nbuckets = 1
	Transforming the one-electron integrals and constructing Fock matrices
	Starting AA/AB first half-transformation.
	Sorting AA/AB half-transformed integrals.
	Starting BB first half-transformation.
	Sorting BB half-transformed integrals.
	First half integral transformation complete.
	Starting AA second half-transformation.
	Starting AB second half-transformation.
	Starting BB second half-transformation.
	Two-electron integral transformation complete.
	(OO|OV)...
	Starting AA second half-transformation.
	Starting AB second half-transformation.
	Starting BB second half-transformation.
	Two-electron integral transformation complete.
	(OO|VV)...
	Starting AA second half-transformation.
	Starting AB second half-transformation.
	Starting BB second half-transformation.
	Two-electron integral transformation complete.
	(OV|OO)...
	Starting AA/AB first half-transformation.
	Sorting AA/AB half-transformed integrals.
	Starting BB first half-transformation.
	Sorting BB half-transformed integrals.
	First half integral transformation complete.
	Starting AA second half-transformation.
	Starting AB second half-transformation.
	Starting BB second half-transformation.
	Two-electron integral transformation complete.
	(OV|OV)...
	Starting AA second half-transformation.
	Starting AB second half-transformation.
	Starting BB second half-transformation.
	Two-electron integral transformation complete.
	(OV|VV)...
	Starting AA second half-transformation.
	Starting AB second half-transformation.
	Starting BB second half-transformation.
	Two-electron integral transformation complete.
	(VV|OO)...
	Starting AA/AB first half-transformation.
	Sorting AA/AB half-transformed integrals.
	Starting BB first half-transformation.
	Sorting BB half-transformed integrals.
	First half integral transformation complete.
	Starting AA second half-transformation.
	Starting AB second half-transformation.
	Starting BB second half-transformation.
	Two-electron integral transformation complete.
	(VV|OV)...
	Starting AA second half-transformation.
	Starting AB second half-transformation.
	Starting BB second half-transformation.
	Two-electron integral transformation complete.
	(VV|VV)...
	Starting AA second half-transformation.
	Starting AB second half-transformation.
	Starting BB second half-transformation.
	Two-electron integral transformation complete.
	Frozen core energy     =   -127.07116679243521

	Size of irrep 0 of <AB|CD> integrals:      5.040 (MW) /     40.320 (MB)
	Size of irrep 1 of <AB|CD> integrals:      3.197 (MW) /     25.576 (MB)
	Size of irrep 2 of <AB|CD> integrals:      3.640 (MW) /     29.124 (MB)
	Size of irrep 3 of <AB|CD> integrals:      4.783 (MW) /     38.264 (MB)
	Total:                                    16.660 (MW) /    133.283 (MB)

	Size of irrep 0 of <ab|cd> integrals:      5.382 (MW) /     43.059 (MB)
	Size of irrep 1 of <ab|cd> integrals:      3.389 (MW) /     27.114 (MB)
	Size of irrep 2 of <ab|cd> integrals:      3.936 (MW) /     31.490 (MB)
	Size of irrep 3 of <ab|cd> integrals:      5.018 (MW) /     40.141 (MB)
	Total:                                    17.726 (MW) /    141.804 (MB)

	Size of irrep 0 of <Ab|Cd> integrals:     22.024 (MW) /    176.194 (MB)
	Size of irrep 1 of <Ab|Cd> integrals:     13.170 (MW) /    105.357 (MB)
	Size of irrep 2 of <Ab|Cd> integrals:     15.140 (MW) /    121.119 (MB)
	Size of irrep 3 of <Ab|Cd> integrals:     19.598 (MW) /    156.787 (MB)
	Total:                                    69.932 (MW) /    559.457 (MB)

	Size of irrep 0 of <IA|BC> integrals:      1.469 (MW) /     11.748 (MB)
	Size of irrep 1 of <IA|BC> integrals:      0.694 (MW) /      5.550 (MB)
	Size of irrep 2 of <IA|BC> integrals:      0.908 (MW) /      7.266 (MB)
	Size of irrep 3 of <IA|BC> integrals:      1.198 (MW) /      9.588 (MB)
	Total:                                     4.269 (MW) /     34.152 (MB)

	Size of irrep 0 of <ia|bc> integrals:      1.178 (MW) /      9.426 (MB)
	Size of irrep 1 of <ia|bc> integrals:      0.527 (MW) /      4.212 (MB)
	Size of irrep 2 of <ia|bc> integrals:      0.663 (MW) /      5.301 (MB)
	Size of irrep 3 of <ia|bc> integrals:      0.999 (MW) /      7.992 (MB)
	Total:                                     3.366 (MW) /     26.931 (MB)

	Size of irrep 0 of <Ia|Bc> integrals:      1.521 (MW) /     12.164 (MB)
	Size of irrep 1 of <Ia|Bc> integrals:      0.711 (MW) /      5.690 (MB)
	Size of irrep 2 of <Ia|Bc> integrals:      0.949 (MW) /      7.595 (MB)
	Size of irrep 3 of <Ia|Bc> integrals:      1.222 (MW) /      9.775 (MB)
	Total:                                     4.403 (MW) /     35.225 (MB)

	Size of irrep 0 of <iA|bC> integrals:      1.140 (MW) /      9.123 (MB)
	Size of irrep 1 of <iA|bC> integrals:      0.512 (MW) /      4.094 (MB)
	Size of irrep 2 of <iA|bC> integrals:      0.634 (MW) /      5.074 (MB)
	Size of irrep 3 of <iA|bC> integrals:      0.978 (MW) /      7.827 (MB)
	Total:                                     3.265 (MW) /     26.118 (MB)

	Size of irrep 0 of tIjAb amplitudes:       0.084 (MW) /      0.676 (MB)
	Size of irrep 1 of tIjAb amplitudes:       0.022 (MW) /      0.174 (MB)
	Size of irrep 2 of tIjAb amplitudes:       0.039 (MW) /      0.311 (MB)
	Size of irrep 3 of tIjAb amplitudes:       0.062 (MW) /      0.496 (MB)
	Total:                                     0.207 (MW) /      1.657 (MB)

	Nuclear Rep. energy          =     26.04579656876983
	SCF energy                   =   -150.86746632100375
	One-electron energy          =    -88.14584497885760
	Two-electron (AA) energy     =     10.77706268524419
	Two-electron (BB) energy     =      5.66028774634819
	Two-electron (AB) energy     =     21.86639844992457
	Two-electron energy          =     38.30374888151695
	Reference energy             =   -150.86746632100602

*** tstop() called on b1-8.compute.lan at Wed Mar 10 09:16:29 2021
Module time:
	user time   =     161.41 seconds =       2.69 minutes
	system time =       7.64 seconds =       0.13 minutes
	total time  =         21 seconds =       0.35 minutes
Total time:
	user time   =     204.50 seconds =       3.41 minutes
	system time =       9.00 seconds =       0.15 minutes
	total time  =         27 seconds =       0.45 minutes
            **************************
            *                        *
            *        CCENERGY        *
            *                        *
            **************************

    Nuclear Rep. energy (wfn)     =   26.045796568769831
    SCF energy          (wfn)     = -150.867466321003747
    Reference energy    (file100) = -150.867466321006020

    Input parameters:
    -----------------
    Wave function   =     CCSD_T
    Reference wfn   =     UHF
    Brueckner       =     No
    Memory (Mbytes) =     4000.0
    Maxiter         =     50
    R_Convergence   =     1.0e-10
    E_Convergence   =     1.0e-10
    Restart         =     Yes
    DIIS            =     Yes
    AO Basis        =     NONE
    ABCD            =     NEW
    Cache Level     =     2
    Cache Type      =     LRU
    Print Level     =     1
    Num. of threads =     12
    # Amps to Print =     10
    Print MP2 Amps? =     No
    Analyze T2 Amps =     No
    Print Pair Ener =     No
    Local CC        =     No
    SCS-MP2         =     False
    SCSN-MP2        =     False
    SCS-CCSD        =     False

MP2 correlation energy -0.4186446082813472
                Solving CC Amplitude Equations
                ------------------------------
  Iter             Energy              RMS        T1Diag      D1Diag    New D1Diag    D2Diag
  ----     ---------------------    ---------   ----------  ----------  ----------   --------
     0        -0.418644608281347    0.000e+00    0.000000    0.000000    0.000000    0.000000
     1        -0.429197349336984    6.051e-02    0.011866    0.000000    0.000000    0.000000
     2        -0.437518690174826    1.833e-02    0.012536    0.000000    0.000000    0.000000
     3        -0.439821871031580    1.182e-02    0.015232    0.000000    0.000000    0.000000
     4        -0.439762365745407    4.373e-03    0.016358    0.000000    0.000000    0.000000
     5        -0.439724491836326    2.995e-03    0.017123    0.000000    0.000000    0.000000
     6        -0.439790436190158    1.167e-03    0.017488    0.000000    0.000000    0.000000
     7        -0.439800132709379    5.489e-04    0.017584    0.000000    0.000000    0.000000
     8        -0.439799317360251    2.022e-04    0.017626    0.000000    0.000000    0.000000
     9        -0.439802624365337    1.068e-04    0.017632    0.000000    0.000000    0.000000
    10        -0.439797627265966    5.597e-05    0.017645    0.000000    0.000000    0.000000
    11        -0.439798116637131    2.620e-05    0.017645    0.000000    0.000000    0.000000
    12        -0.439797934186417    1.031e-05    0.017647    0.000000    0.000000    0.000000
    13        -0.439798093979751    5.311e-06    0.017646    0.000000    0.000000    0.000000
    14        -0.439798285004713    2.171e-06    0.017646    0.000000    0.000000    0.000000
    15        -0.439798290540069    9.831e-07    0.017646    0.000000    0.000000    0.000000
    16        -0.439798294473736    4.305e-07    0.017646    0.000000    0.000000    0.000000
    17        -0.439798296013980    1.458e-07    0.017646    0.000000    0.000000    0.000000
    18        -0.439798293736415    7.399e-08    0.017646    0.000000    0.000000    0.000000

      * MP2 total energy                      = -151.286110929287361
      * CCSD total energy                     = -151.307264614591674
      * CCSD(T) total energy                     = -151.320057999676521
*** Psi4 exiting successfully. Buy a developer a beer!
