                               Psi4 1.3.2 release

  ==> Input File <==

--------------------------------------------------------------------------
memory 4 GB

molecule  {
0 3
O    0.000000000000    0.000000000000   -1.464958564480
H    0.000000000000   -0.734514175600   -0.845156367706
H   -0.000000000000    0.734514175600   -0.845156367706
O    0.000000000000    0.000000000000    1.571463633594
}
set {
basis aug-cc-pvtz
reference uhf
e_convergence 10
scf_type pk
freeze_core true
}

set ccenergy {
e_convergence 10
r_convergence 10
}

e = energy('ccsd(t)')

print_out('Stephenergy {}'.format(e))

--------------------------------------------------------------------------

    Molecular point group: c2v

    Geometry (in Angstrom), charge = 0, multiplicity = 3:

       Center              X                  Y                   Z               Mass
    ------------   -----------------  -----------------  -----------------  -----------------
         O            0.000000000000     0.000000000000    -1.464958564480    15.994914619570
         H            0.000000000000    -0.734514175600    -0.845156367706     1.007825032230
         H           -0.000000000000     0.734514175600    -0.845156367706     1.007825032230
         O            0.000000000000     0.000000000000     1.571463633594    15.994914619570

  Charge       = 0
  Multiplicity = 3
  Basis Set: AUG-CC-PVTZ
    Blend: AUG-CC-PVTZ

    Orbital Energies [Eh]
    ---------------------

    Alpha Occupied:

       1A1   -20.734038     2A1   -20.561024     3A1    -1.444094
       4A1    -1.347174     1B2    -0.735559     1B1    -0.734569
       2B2    -0.698113     5A1    -0.642771     6A1    -0.581151
       2B1    -0.503659

    Alpha Virtual:

       7A1     0.036127     3B2     0.048824     8A1     0.130629
       3B1     0.130636     9A1     0.152790     4B2     0.159137
       4B1     0.185937     5B2     0.186827    10A1     0.191955
      11A1     0.264119     6B2     0.264180     1A2     0.266519
      12A1     0.276023     5B1     0.325662    13A1     0.385433
       7B2     0.387321    14A1     0.456807     8B2     0.475657
       2A2     0.613030     9B2     0.629624    15A1     0.629780
      16A1     0.648552     6B1     0.654025    17A1     0.717420
       3A2     0.733702    10B2     0.751324     7B1     0.764471
      18A1     0.778723     8B1     0.826144    11B2     0.851000
      19A1     0.864061     9B1     0.921005    12B2     0.945088
       4A2     0.951089    20A1     0.962174    21A1     0.997776
      10B1     1.000098    13B2     1.014563    22A1     1.067162
      14B2     1.067711    11B1     1.171003     5A2     1.200206
      23A1     1.206126    24A1     1.223923    15B2     1.267882
      16B2     1.347138    25A1     1.443096     6A2     1.511457
      12B1     1.582178    26A1     1.759588    27A1     1.839435
      17B2     1.867351    18B2     1.958947    13B1     1.975280
      28A1     2.009545    19B2     2.016144     7A2     2.018998
      14B1     2.042235    29A1     2.046633     8A2     2.083544
      30A1     2.102201    20B2     2.120508    15B1     2.159919
      31A1     2.215025    16B1     2.318859    21B2     2.338262
       9A2     2.347428    32A1     2.366727    33A1     2.425420
      34A1     2.498469    22B2     2.536196    17B1     2.569122
      35A1     2.623685    23B2     2.697710    18B1     2.728631
      36A1     2.873795    24B2     2.885143    10A2     2.894102
      25B2     3.689606    37A1     3.726493    19B1     4.054916
      11A2     4.064592    20B1     4.119146    26B2     4.128267
      38A1     4.201379    21B1     4.236814    27B2     4.296030
      39A1     4.300150    12A2     4.389959    22B1     4.426925
      40A1     4.524687    28B2     4.566312    41A1     4.784094
      29B2     4.885316    13A2     5.145687    30B2     5.216484
      31B2     5.236512    42A1     5.377000    23B1     5.546864
      43A1     5.638902    44A1     6.238755    24B1     6.311446
      32B2     6.314660    14A2     6.391595    45A1     6.405322
      25B1     6.427774    33B2     6.494212    46A1     6.520791
      34B2     6.562936    26B1     6.780704    15A2     6.821262
      47A1     6.823884    27B1     6.942557    48A1     6.981870
      35B2     6.982381    49A1     7.045123    28B1     7.142558
      29B1     7.272266    36B2     7.315110    16A2     7.329710
      17A2     7.355903    50A1     7.411540    51A1     7.564048
      52A1     7.868288    37B2     7.974221    38B2     8.847099
      53A1     8.916577    54A1    15.800105

    Beta Occupied:

       1A1   -20.655567     2A1   -20.561102     3A1    -1.347707
       4A1    -1.102059     1B2    -0.698559     5A1    -0.595287
       6A1    -0.539818     1B1    -0.503552

    Beta Virtual:

       2B2     0.032214     7A1     0.037436     2B1     0.046205
       3B2     0.069110     8A1     0.135967     9A1     0.155420
       3B1     0.161249     4B2     0.179414    10A1     0.192488
       4B1     0.225465     5B2     0.227288     6B2     0.265912
       1A2     0.267192    11A1     0.271392    12A1     0.280533
       5B1     0.328013    13A1     0.389250     7B2     0.396538
      14A1     0.458693     8B2     0.476117     9B2     0.630800
       2A2     0.645018    15A1     0.649996    16A1     0.663638
       6B1     0.664168    17A1     0.718386     3A2     0.734841
      10B2     0.766069     7B1     0.769418    18A1     0.793382
      19A1     0.867980     8B1     0.908173    11B2     0.939145
       9B1     0.941012     4A2     0.953815    12B2     0.956889
      20A1     0.964076    21A1     1.003353    13B2     1.037371
      10B1     1.040239    22A1     1.069984    14B2     1.080706
      11B1     1.184992     5A2     1.201351    23A1     1.215855
      24A1     1.262036    15B2     1.268049    16B2     1.365440
      25A1     1.460825     6A2     1.511828    12B1     1.582654
      26A1     1.781705    27A1     1.845255    17B2     1.868814
      18B2     1.971976    13B1     2.012315    28A1     2.037460
      19B2     2.040234    14B1     2.072075     7A2     2.083766
      29A1     2.107049    20B2     2.180391     8A2     2.188265
      30A1     2.192556    15B1     2.213518    31A1     2.257846
      16B1     2.329576     9A2     2.353226    21B2     2.367174
      32A1     2.373298    33A1     2.438496    34A1     2.500741
      22B2     2.544507    17B1     2.573935    35A1     2.629056
      23B2     2.698731    18B1     2.728840    36A1     2.874701
      24B2     2.886335    10A2     2.894190    25B2     3.690582
      37A1     3.727309    11A2     4.064740    19B1     4.112033
      38A1     4.202142    20B1     4.221323    21B1     4.248498
      26B2     4.292477    27B2     4.297160    39A1     4.319922
      12A2     4.390032    22B1     4.427877    40A1     4.551332
      28B2     4.568344    41A1     4.785241    29B2     4.886145
      13A2     5.145746    30B2     5.216552    31B2     5.236733
      42A1     5.377461    23B1     5.546882    43A1     5.639203
      44A1     6.245444    24B1     6.419983    32B2     6.422737
      14A2     6.468009    45A1     6.477605    25B1     6.481604
      33B2     6.503148    46A1     6.565509    34B2     6.610960
      26B1     6.788350    47A1     6.984099    15A2     7.009592
      48A1     7.017309    27B1     7.047640    35B2     7.090870
      49A1     7.119859    28B1     7.144040    29B1     7.272430
      36B2     7.315574    16A2     7.329823    17A2     7.356084
      50A1     7.412491    51A1     7.565673    52A1     7.868515
      37B2     7.974248    38B2     8.846945    53A1     8.996499
      54A1    15.800123

    Final Occupation by Irrep:
             A1    A2    B1    B2
    DOCC [     6,    0,    1,    1 ]
    SOCC [     0,    0,    1,    1 ]

  @UHF Final Energy:  -150.87142035189345

   => Energetics <=

    Nuclear Repulsion Energy =             23.6758411250140028
    One-Electron Energy =                -255.1087220336513610
    Two-Electron Energy =                  80.5614605567439241
    Total Energy =                       -150.8714203518934198

  UHF NO Occupations:
  HONO-2 :    6 A1 1.9970842
  HONO-1 :    2 B2 1.0000000
  HONO-0 :    2 B1 1.0000000
  LUNO+0 :    7 A1 0.0029158
  LUNO+1 :    8 A1 0.0016081
  LUNO+2 :    9 A1 0.0000024
  LUNO+3 :   10 A1 0.0000020

Computation Completed

Properties will be evaluated at   0.000000,   0.000000,   0.000000 [a0]

Properties computed using the SCF density matrix

  Nuclear Dipole Moment: [e a0]
     X:     0.0000      Y:     0.0000      Z:    -1.5841

  Electronic Dipole Moment: [e a0]
     X:     0.0000      Y:     0.0000      Z:     2.4627

  Dipole Moment: [e a0]
     X:     0.0000      Y:     0.0000      Z:     0.8786     Total:     0.8786

  Dipole Moment: [D]
     X:     0.0000      Y:     0.0000      Z:     2.2332     Total:     2.2332

*** tstop() called on c1-9.compute.lan at Wed Mar 10 09:28:07 2021
Module time:
	user time   =      53.43 seconds =       0.89 minutes
	system time =       3.57 seconds =       0.06 minutes
	total time  =          7 seconds =       0.12 minutes
Total time:
	user time   =      53.43 seconds =       0.89 minutes
	system time =       3.57 seconds =       0.06 minutes
	total time  =          7 seconds =       0.12 minutes
 MINTS: Wrapper to libmints.
   by Justin Turney

   Calculation information:
      Number of threads:                12
      Number of atoms:                   4
      Number of AO shells:              46
      Number of SO shells:              37
      Number of primitives:             82
      Number of atomic orbitals:       160
      Number of basis functions:       138

      Number of irreps:                  4
      Integral cutoff                 0.00e+00
      Number of functions per irrep: [  54   17   29   38 ]

 OEINTS: Overlap, kinetic, potential, dipole, and quadrupole integrals
         stored in file 35.

      Computing two-electron integrals...done
      Computed 11530166 non-zero two-electron integrals.
        Stored in file 33.

*** tstart() called on c1-9.compute.lan
*** at Wed Mar 10 09:28:10 2021

	Wfn Parameters:
	--------------------
	Wavefunction         = CCSD_T
	Number of irreps     = 4
	Number of MOs        = 138
	Number of active MOs = 136
	AO-Basis             = NONE
	Semicanonical        = false
	Reference            = UHF
	Print Level          = 1

	IRREP	# MOs	# FZDC	# DOCC	# SOCC	# VIRT	# FZVR
	-----	-----	------	------	------	------	------
	 A1	   54	    2	    4	    0	    48	    0
	 A2	   17	    0	    0	    0	    17	    0
	 B1	   29	    0	    1	    1	    27	    0
	 B2	   38	    0	    1	    1	    36	    0
	Transforming integrals...
	IWL integrals will be deleted.
	(OO|OO)...
	Presorting SO-basis two-electron integrals.
	Sorting File: SO Ints (nn|nn) nbuckets = 1
	Transforming the one-electron integrals and constructing Fock matrices
	Starting AA/AB first half-transformation.
	Sorting AA/AB half-transformed integrals.
	Starting BB first half-transformation.
	Sorting BB half-transformed integrals.
	First half integral transformation complete.
	Starting AA second half-transformation.
	Starting AB second half-transformation.
	Starting BB second half-transformation.
	Two-electron integral transformation complete.
	(OO|OV)...
	Starting AA second half-transformation.
	Starting AB second half-transformation.
	Starting BB second half-transformation.
	Two-electron integral transformation complete.
	(OO|VV)...
	Starting AA second half-transformation.
	Starting AB second half-transformation.
	Starting BB second half-transformation.
	Two-electron integral transformation complete.
	(OV|OO)...
	Starting AA/AB first half-transformation.
	Sorting AA/AB half-transformed integrals.
	Starting BB first half-transformation.
	Sorting BB half-transformed integrals.
	First half integral transformation complete.
	Starting AA second half-transformation.
	Starting AB second half-transformation.
	Starting BB second half-transformation.
	Two-electron integral transformation complete.
	(OV|OV)...
	Starting AA second half-transformation.
	Starting AB second half-transformation.
	Starting BB second half-transformation.
	Two-electron integral transformation complete.
	(OV|VV)...
	Starting AA second half-transformation.
	Starting AB second half-transformation.
	Starting BB second half-transformation.
	Two-electron integral transformation complete.
	(VV|OO)...
	Starting AA/AB first half-transformation.
	Sorting AA/AB half-transformed integrals.
	Starting BB first half-transformation.
	Sorting BB half-transformed integrals.
	First half integral transformation complete.
	Starting AA second half-transformation.
	Starting AB second half-transformation.
	Starting BB second half-transformation.
	Two-electron integral transformation complete.
	(VV|OV)...
	Starting AA second half-transformation.
	Starting AB second half-transformation.
	Starting BB second half-transformation.
	Two-electron integral transformation complete.
	(VV|VV)...
	Starting AA second half-transformation.
	Starting AB second half-transformation.
	Starting BB second half-transformation.
	Two-electron integral transformation complete.
	Frozen core energy     =   -126.13127074516510

	Size of irrep 0 of <AB|CD> integrals:      5.040 (MW) /     40.320 (MB)
	Size of irrep 1 of <AB|CD> integrals:      3.197 (MW) /     25.576 (MB)
	Size of irrep 2 of <AB|CD> integrals:      3.640 (MW) /     29.124 (MB)
	Size of irrep 3 of <AB|CD> integrals:      4.783 (MW) /     38.264 (MB)
	Total:                                    16.660 (MW) /    133.283 (MB)

	Size of irrep 0 of <ab|cd> integrals:      5.327 (MW) /     42.615 (MB)
	Size of irrep 1 of <ab|cd> integrals:      3.430 (MW) /     27.439 (MB)
	Size of irrep 2 of <ab|cd> integrals:      3.893 (MW) /     31.142 (MB)
	Size of irrep 3 of <ab|cd> integrals:      5.072 (MW) /     40.572 (MB)
	Total:                                    17.721 (MW) /    141.768 (MB)

	Size of irrep 0 of <Ab|Cd> integrals:     21.912 (MW) /    175.294 (MB)
	Size of irrep 1 of <Ab|Cd> integrals:     13.242 (MW) /    105.939 (MB)
	Size of irrep 2 of <Ab|Cd> integrals:     15.062 (MW) /    120.497 (MB)
	Size of irrep 3 of <Ab|Cd> integrals:     19.705 (MW) /    157.638 (MB)
	Total:                                    69.921 (MW) /    559.368 (MB)

	Size of irrep 0 of <IA|BC> integrals:      1.469 (MW) /     11.748 (MB)
	Size of irrep 1 of <IA|BC> integrals:      0.694 (MW) /      5.550 (MB)
	Size of irrep 2 of <IA|BC> integrals:      0.908 (MW) /      7.266 (MB)
	Size of irrep 3 of <IA|BC> integrals:      1.198 (MW) /      9.588 (MB)
	Total:                                     4.269 (MW) /     34.152 (MB)

	Size of irrep 0 of <ia|bc> integrals:      1.220 (MW) /      9.758 (MB)
	Size of irrep 1 of <ia|bc> integrals:      0.493 (MW) /      3.941 (MB)
	Size of irrep 2 of <ia|bc> integrals:      0.698 (MW) /      5.588 (MB)
	Size of irrep 3 of <ia|bc> integrals:      0.959 (MW) /      7.675 (MB)
	Total:                                     3.370 (MW) /     26.961 (MB)

	Size of irrep 0 of <Ia|Bc> integrals:      1.507 (MW) /     12.058 (MB)
	Size of irrep 1 of <Ia|Bc> integrals:      0.721 (MW) /      5.764 (MB)
	Size of irrep 2 of <Ia|Bc> integrals:      0.939 (MW) /      7.514 (MB)
	Size of irrep 3 of <Ia|Bc> integrals:      1.234 (MW) /      9.872 (MB)
	Total:                                     4.401 (MW) /     35.208 (MB)

	Size of irrep 0 of <iA|bC> integrals:      1.194 (MW) /      9.549 (MB)
	Size of irrep 1 of <iA|bC> integrals:      0.477 (MW) /      3.814 (MB)
	Size of irrep 2 of <iA|bC> integrals:      0.671 (MW) /      5.371 (MB)
	Size of irrep 3 of <iA|bC> integrals:      0.928 (MW) /      7.422 (MB)
	Total:                                     3.270 (MW) /     26.156 (MB)

	Size of irrep 0 of tIjAb amplitudes:       0.094 (MW) /      0.749 (MB)
	Size of irrep 1 of tIjAb amplitudes:       0.015 (MW) /      0.116 (MB)
	Size of irrep 2 of tIjAb amplitudes:       0.047 (MW) /      0.373 (MB)
	Size of irrep 3 of tIjAb amplitudes:       0.053 (MW) /      0.426 (MB)
	Total:                                     0.208 (MW) /      1.664 (MB)

	Nuclear Rep. energy          =     23.67584112501400
	SCF energy                   =   -150.87142035189345
	One-electron energy          =    -85.35791095713498
	Two-electron (AA) energy     =     10.28702831520273
	Two-electron (BB) energy     =      5.47112509553135
	Two-electron (AB) energy     =     21.18376681465577
	Two-electron energy          =     36.94192022538985
	Reference energy             =   -150.87142035189623

*** tstop() called on c1-9.compute.lan at Wed Mar 10 09:28:37 2021
Module time:
	user time   =     119.05 seconds =       1.98 minutes
	system time =      18.46 seconds =       0.31 minutes
	total time  =         27 seconds =       0.45 minutes
Total time:
	user time   =     177.89 seconds =       2.96 minutes
	system time =      22.61 seconds =       0.38 minutes
	total time  =         37 seconds =       0.62 minutes
            **************************
            *                        *
            *        CCENERGY        *
            *                        *
            **************************

    Nuclear Rep. energy (wfn)     =   23.675841125014003
    SCF energy          (wfn)     = -150.871420351893448
    Reference energy    (file100) = -150.871420351896234

    Input parameters:
    -----------------
    Wave function   =     CCSD_T
    Reference wfn   =     UHF
    Brueckner       =     No
    Memory (Mbytes) =     4000.0
    Maxiter         =     50
    R_Convergence   =     1.0e-10
    E_Convergence   =     1.0e-10
    Restart         =     Yes
    DIIS            =     Yes
    AO Basis        =     NONE
    ABCD            =     NEW
    Cache Level     =     2
    Cache Type      =     LRU
    Print Level     =     1
    Num. of threads =     12
    # Amps to Print =     10
    Print MP2 Amps? =     No
    Analyze T2 Amps =     No
    Print Pair Ener =     No
    Local CC        =     No
    SCS-MP2         =     False
    SCSN-MP2        =     False
    SCS-CCSD        =     False

MP2 correlation energy -0.4166968512282672
                Solving CC Amplitude Equations
                ------------------------------
  Iter             Energy              RMS        T1Diag      D1Diag    New D1Diag    D2Diag
  ----     ---------------------    ---------   ----------  ----------  ----------   --------
     0        -0.416696851228267    0.000e+00    0.000000    0.000000    0.000000    0.000000
     1        -0.427501205230206    5.669e-02    0.010487    0.000000    0.000000    0.000000
     2        -0.435647538973089    1.683e-02    0.011035    0.000000    0.000000    0.000000
     3        -0.437736346319900    8.592e-03    0.012917    0.000000    0.000000    0.000000
     4        -0.437612746443178    2.534e-03    0.013299    0.000000    0.000000    0.000000
     5        -0.437594315140162    1.393e-03    0.013472    0.000000    0.000000    0.000000
     6        -0.437622827272878    5.408e-04    0.013509    0.000000    0.000000    0.000000
     7        -0.437627896598711    3.040e-04    0.013512    0.000000    0.000000    0.000000
     8        -0.437628323936507    1.023e-04    0.013510    0.000000    0.000000    0.000000
     9        -0.437629735393020    5.656e-05    0.013513    0.000000    0.000000    0.000000
    10        -0.437627872091479    2.831e-05    0.013515    0.000000    0.000000    0.000000
    11        -0.437628092141153    1.476e-05    0.013516    0.000000    0.000000    0.000000
    12        -0.437628044011069    5.843e-06    0.013517    0.000000    0.000000    0.000000
    13        -0.437628097182510    2.028e-06    0.013517    0.000000    0.000000    0.000000
    14        -0.437628172952939    8.245e-07    0.013517    0.000000    0.000000    0.000000
    15        -0.437628179493626    2.378e-07    0.013517    0.000000    0.000000    0.000000
    16        -0.437628180577406    1.249e-07    0.013517    0.000000    0.000000    0.000000
    17        -0.437628181883942    4.223e-08    0.013517    0.000000    0.000000    0.000000
    18        -0.437628181109227    2.018e-08    0.013517    0.000000    0.000000    0.000000

      * MP2 total energy                      = -151.288117203124500
      * CCSD total energy                     = -151.309048532862477
      * CCSD(T) total energy                     = -151.321403022536515
*** Psi4 exiting successfully. Buy a developer a beer!
