                               Psi4 1.3.2 release

  ==> Input File <==

--------------------------------------------------------------------------
memory 4 GB

molecule  {
0 3
O   -1.520512699176   -0.026868967589    0.000000000000
H   -0.557836621776   -0.011974913990    0.000000000000
H   -1.784667594957    0.895332430620    0.000000000000
O    1.668111760745   -0.028790586641    0.000000000000
}
set {
basis aug-cc-pvtz
reference uhf
e_convergence 10
scf_type pk
freeze_core true
}

set ccenergy {
e_convergence 10
r_convergence 10
}

e = energy('ccsd(t)')

print_out('Stephenergy {}'.format(e))

--------------------------------------------------------------------------

    Molecular point group: cs

    Geometry (in Angstrom), charge = 0, multiplicity = 3:

       Center              X                  Y                   Z               Mass
    ------------   -----------------  -----------------  -----------------  -----------------
         O           -1.520512699176    -0.026868967589     0.000000000000    15.994914619570
         H           -0.557836621776    -0.011974913990     0.000000000000     1.007825032230
         H           -1.784667594957     0.895332430620     0.000000000000     1.007825032230
         O            1.668111760745    -0.028790586641     0.000000000000    15.994914619570

  Charge       = 0
  Multiplicity = 3
  Basis Set: AUG-CC-PVTZ
    Blend: AUG-CC-PVTZ

    Orbital Energies [Eh]
    ---------------------

    Alpha Occupied:

       1Ap   -20.734916     2Ap   -20.557940     3Ap    -1.444236
       4Ap    -1.342733     5Ap    -0.734768     1App   -0.734623
       6Ap    -0.711620     7Ap    -0.636938     8Ap    -0.573355
       2App   -0.501467

    Alpha Virtual:

       9Ap     0.034632    10Ap     0.053228    11Ap     0.127544
       3App    0.131485    12Ap     0.148146    13Ap     0.161230
      14Ap     0.183355     4App    0.186187    15Ap     0.211454
      16Ap     0.241804    17Ap     0.271786     5App    0.282560
      18Ap     0.293981     6App    0.323850    19Ap     0.372303
      20Ap     0.392750    21Ap     0.460612    22Ap     0.559275
       7App    0.600002    23Ap     0.608429    24Ap     0.644096
      25Ap     0.667739     8App    0.712816    26Ap     0.713100
       9App    0.734684    10App    0.746566    27Ap     0.765664
      28Ap     0.797233    11App    0.824912    29Ap     0.851443
      30Ap     0.865309    12App    0.882713    31Ap     0.923210
      13App    0.943244    32Ap     0.944190    33Ap     0.956571
      14App    0.983551    34Ap     0.988072    35Ap     1.044515
      36Ap     1.127843    37Ap     1.169181    15App    1.177270
      38Ap     1.194681    16App    1.261090    39Ap     1.272194
      40Ap     1.323078    17App    1.529342    41Ap     1.560276
      18App    1.603497    42Ap     1.689781    43Ap     1.814314
      44Ap     1.825494    19App    1.975611    45Ap     1.975650
      46Ap     1.998256    20App    2.011131    47Ap     2.018394
      21App    2.048207    48Ap     2.062166    22App    2.122711
      49Ap     2.163626    50Ap     2.165132    23App    2.211450
      24App    2.294652    51Ap     2.301930    52Ap     2.326424
      53Ap     2.414407    25App    2.447817    54Ap     2.461026
      26App    2.524365    55Ap     2.535612    56Ap     2.632413
      57Ap     2.670573    27App    2.729703    58Ap     2.752702
      59Ap     2.868063    28App    2.946781    60Ap     2.947468
      61Ap     3.701243    62Ap     3.895782    29App    4.033108
      30App    4.058668    63Ap     4.076996    31App    4.174315
      64Ap     4.208984    65Ap     4.271557    32App    4.309066
      66Ap     4.380484    33App    4.394162    67Ap     4.439745
      34App    4.440156    68Ap     4.573606    69Ap     4.781296
      70Ap     4.960872    35App    5.160849    71Ap     5.174789
      72Ap     5.316447    73Ap     5.378747    36App    5.527111
      74Ap     5.702438    75Ap     6.191854    37App    6.310246
      76Ap     6.310287    38App    6.372772    77Ap     6.375691
      39App    6.520586    78Ap     6.529454    79Ap     6.557022
      80Ap     6.635135    40App    6.724782    81Ap     6.812175
      41App    6.818437    82Ap     6.907247    42App    6.933849
      83Ap     6.965521    84Ap     7.049653    43App    7.149920
      44App    7.275889    45App    7.327674    85Ap     7.333141
      86Ap     7.360111    46App    7.443517    87Ap     7.666914
      88Ap     7.950490    89Ap     7.971185    90Ap     8.810404
      91Ap     9.394481    92Ap    16.572305

    Beta Occupied:

       1Ap   -20.656137     2Ap   -20.558079     3Ap    -1.343335
       4Ap    -1.101786     5Ap    -0.710689     6Ap    -0.579991
       7Ap    -0.542003     1App   -0.501522

    Beta Virtual:

       8Ap     0.034270     9Ap     0.046099     2App    0.047682
      10Ap     0.057589    11Ap     0.144218    12Ap     0.151036
       3App    0.160268    13Ap     0.179749    14Ap     0.210176
      15Ap     0.217968     4App    0.225951    16Ap     0.251421
      17Ap     0.273724     5App    0.282906    18Ap     0.296246
       6App    0.327569    19Ap     0.376124    20Ap     0.403384
      21Ap     0.461345    22Ap     0.562172     7App    0.632298
      23Ap     0.638777    24Ap     0.647173    25Ap     0.670668
      26Ap     0.713821     8App    0.726584     9App    0.735907
      10App    0.748025    27Ap     0.784323    28Ap     0.809707
      29Ap     0.856752    11App    0.867057    30Ap     0.918436
      12App    0.936508    31Ap     0.943806    13App    0.950079
      32Ap     0.953556    33Ap     0.975893    34Ap     1.016506
      14App    1.024896    35Ap     1.048418    36Ap     1.154355
      37Ap     1.177174    15App    1.180512    38Ap     1.219455
      16App    1.272217    39Ap     1.274380    40Ap     1.333956
      17App    1.530201    41Ap     1.566206    18App    1.605097
      42Ap     1.716435    43Ap     1.819137    44Ap     1.833239
      45Ap     2.006476    19App    2.013722    46Ap     2.013971
      20App    2.052809    47Ap     2.067070    21App    2.170663
      22App    2.179517    48Ap     2.179735    49Ap     2.203122
      50Ap     2.226957    23App    2.248881    24App    2.296634
      51Ap     2.316939    52Ap     2.341827    53Ap     2.421847
      25App    2.450287    54Ap     2.461852    26App    2.532943
      55Ap     2.542877    56Ap     2.638531    57Ap     2.681548
      27App    2.730869    58Ap     2.759940    59Ap     2.872536
      28App    2.947466    60Ap     2.950194    61Ap     3.701733
      62Ap     3.898519    29App    4.033323    30App    4.147701
      63Ap     4.188668    64Ap     4.243299    31App    4.255306
      65Ap     4.294322    32App    4.309309    33App    4.394334
      66Ap     4.397268    34App    4.441697    67Ap     4.468680
      68Ap     4.574624    69Ap     4.782712    70Ap     4.963131
      35App    5.160836    71Ap     5.175350    72Ap     5.316652
      73Ap     5.379836    36App    5.527200    74Ap     5.703079
      75Ap     6.192288    37App    6.419211    76Ap     6.419237
      38App    6.448180    77Ap     6.451233    78Ap     6.536145
      39App    6.575519    79Ap     6.606332    80Ap     6.681257
      40App    6.729074    81Ap     6.908357    41App    7.004544
      82Ap     7.005372    42App    7.042185    83Ap     7.071144
      84Ap     7.129978    43App    7.152071    44App    7.276413
      45App    7.328490    85Ap     7.333158    86Ap     7.360675
      46App    7.443955    87Ap     7.668258    88Ap     7.950694
      89Ap     7.971465    90Ap     8.812931    91Ap     9.468970
      92Ap    16.572865

    Final Occupation by Irrep:
             Ap   App
    DOCC [     7,    1 ]
    SOCC [     1,    1 ]

  @UHF Final Energy:  -150.87453129011104

   => Energetics <=

    Nuclear Repulsion Energy =             22.8644052818818544
    One-Electron Energy =                -253.5117366111200283
    Two-Electron Energy =                  79.7728000391271337
    Total Energy =                       -150.8745312901110367

  UHF NO Occupations:
  HONO-2 :    7 Ap 1.9970293
  HONO-1 :    8 Ap 1.0000000
  HONO-0 :    2App 1.0000000
  LUNO+0 :    9 Ap 0.0029707
  LUNO+1 :   10 Ap 0.0017124
  LUNO+2 :   11 Ap 0.0000024
  LUNO+3 :   12 Ap 0.0000019

Computation Completed

Properties will be evaluated at   0.000000,   0.000000,   0.000000 [a0]

Properties computed using the SCF density matrix

  Nuclear Dipole Moment: [e a0]
     X:    -2.1953      Y:     0.8279      Z:     0.0000

  Electronic Dipole Moment: [e a0]
     X:     2.7552      Y:    -0.2134      Z:     0.0000

  Dipole Moment: [e a0]
     X:     0.5599      Y:     0.6145      Z:     0.0000     Total:     0.8313

  Dipole Moment: [D]
     X:     1.4232      Y:     1.5619      Z:     0.0000     Total:     2.1130

*** tstop() called on c5-20.compute.lan at Tue Mar  9 14:46:05 2021
Module time:
	user time   =      56.98 seconds =       0.95 minutes
	system time =       0.82 seconds =       0.01 minutes
	total time  =          6 seconds =       0.10 minutes
Total time:
	user time   =      56.98 seconds =       0.95 minutes
	system time =       0.82 seconds =       0.01 minutes
	total time  =          6 seconds =       0.10 minutes
 MINTS: Wrapper to libmints.
   by Justin Turney

   Calculation information:
      Number of threads:                12
      Number of atoms:                   4
      Number of AO shells:              46
      Number of SO shells:              46
      Number of primitives:             82
      Number of atomic orbitals:       160
      Number of basis functions:       138

      Number of irreps:                  2
      Integral cutoff                 0.00e+00
      Number of functions per irrep: [  92   46 ]

 OEINTS: Overlap, kinetic, potential, dipole, and quadrupole integrals
         stored in file 35.

      Computing two-electron integrals...done
      Computed 22952355 non-zero two-electron integrals.
        Stored in file 33.

*** tstart() called on c5-20.compute.lan
*** at Tue Mar  9 14:46:07 2021

	Wfn Parameters:
	--------------------
	Wavefunction         = CCSD_T
	Number of irreps     = 2
	Number of MOs        = 138
	Number of active MOs = 136
	AO-Basis             = NONE
	Semicanonical        = false
	Reference            = UHF
	Print Level          = 1

	IRREP	# MOs	# FZDC	# DOCC	# SOCC	# VIRT	# FZVR
	-----	-----	------	------	------	------	------
	 Ap	   92	    2	    5	    1	    84	    0
	 App	   46	    0	    1	    1	    44	    0
	Transforming integrals...
	IWL integrals will be deleted.
	(OO|OO)...
	Presorting SO-basis two-electron integrals.
	Sorting File: SO Ints (nn|nn) nbuckets = 1
	Transforming the one-electron integrals and constructing Fock matrices
	Starting AA/AB first half-transformation.
	Sorting AA/AB half-transformed integrals.
	Starting BB first half-transformation.
	Sorting BB half-transformed integrals.
	First half integral transformation complete.
	Starting AA second half-transformation.
	Starting AB second half-transformation.
	Starting BB second half-transformation.
	Two-electron integral transformation complete.
	(OO|OV)...
	Starting AA second half-transformation.
	Starting AB second half-transformation.
	Starting BB second half-transformation.
	Two-electron integral transformation complete.
	(OO|VV)...
	Starting AA second half-transformation.
	Starting AB second half-transformation.
	Starting BB second half-transformation.
	Two-electron integral transformation complete.
	(OV|OO)...
	Starting AA/AB first half-transformation.
	Sorting AA/AB half-transformed integrals.
	Starting BB first half-transformation.
	Sorting BB half-transformed integrals.
	First half integral transformation complete.
	Starting AA second half-transformation.
	Starting AB second half-transformation.
	Starting BB second half-transformation.
	Two-electron integral transformation complete.
	(OV|OV)...
	Starting AA second half-transformation.
	Starting AB second half-transformation.
	Starting BB second half-transformation.
	Two-electron integral transformation complete.
	(OV|VV)...
	Starting AA second half-transformation.
	Starting AB second half-transformation.
	Starting BB second half-transformation.
	Two-electron integral transformation complete.
	(VV|OO)...
	Starting AA/AB first half-transformation.
	Sorting AA/AB half-transformed integrals.
	Starting BB first half-transformation.
	Sorting BB half-transformed integrals.
	First half integral transformation complete.
	Starting AA second half-transformation.
	Starting AB second half-transformation.
	Starting BB second half-transformation.
	Two-electron integral transformation complete.
	(VV|OV)...
	Starting AA second half-transformation.
	Starting AB second half-transformation.
	Starting BB second half-transformation.
	Two-electron integral transformation complete.
	(VV|VV)...
	Starting AA second half-transformation.
	Starting AB second half-transformation.
	Starting BB second half-transformation.
	Two-electron integral transformation complete.
	Frozen core energy     =   -125.83185830994937

	Size of irrep 0 of <AB|CD> integrals:     19.643 (MW) /    157.141 (MB)
	Size of irrep 1 of <AB|CD> integrals:     13.660 (MW) /    109.283 (MB)
	Total:                                    33.303 (MW) /    266.424 (MB)

	Size of irrep 0 of <ab|cd> integrals:     20.794 (MW) /    166.349 (MB)
	Size of irrep 1 of <ab|cd> integrals:     14.631 (MW) /    117.045 (MB)
	Total:                                    35.424 (MW) /    283.394 (MB)

	Size of irrep 0 of <Ab|Cd> integrals:     83.174 (MW) /    665.395 (MB)
	Size of irrep 1 of <Ab|Cd> integrals:     56.550 (MW) /    452.403 (MB)
	Total:                                   139.725 (MW) /   1117.798 (MB)

	Size of irrep 0 of <IA|BC> integrals:      5.323 (MW) /     42.586 (MB)
	Size of irrep 1 of <IA|BC> integrals:      3.193 (MW) /     25.547 (MB)
	Total:                                     8.517 (MW) /     68.133 (MB)

	Size of irrep 0 of <ia|bc> integrals:      4.348 (MW) /     34.780 (MB)
	Size of irrep 1 of <ia|bc> integrals:      2.372 (MW) /     18.972 (MB)
	Total:                                     6.719 (MW) /     53.752 (MB)

	Size of irrep 0 of <Ia|Bc> integrals:      5.472 (MW) /     43.776 (MB)
	Size of irrep 1 of <Ia|Bc> integrals:      3.309 (MW) /     26.470 (MB)
	Total:                                     8.781 (MW) /     70.246 (MB)

	Size of irrep 0 of <iA|bC> integrals:      4.232 (MW) /     33.853 (MB)
	Size of irrep 1 of <iA|bC> integrals:      2.286 (MW) /     18.289 (MB)
	Total:                                     6.518 (MW) /     52.142 (MB)

	Size of irrep 0 of tIjAb amplitudes:       0.292 (MW) /      2.335 (MB)
	Size of irrep 1 of tIjAb amplitudes:       0.120 (MW) /      0.963 (MB)
	Total:                                     0.412 (MW) /      3.297 (MB)

	Nuclear Rep. energy          =     22.86440528188185
	SCF energy                   =   -150.87453129011104
	One-electron energy          =    -84.35509012073706
	Two-electron (AA) energy     =     10.12579462691576
	Two-electron (BB) energy     =      5.38834295071031
	Two-electron (AB) energy     =     20.93387428106514
	Two-electron energy          =     36.44801185869121
	Reference energy             =   -150.87453129011337

*** tstop() called on c5-20.compute.lan at Tue Mar  9 14:46:41 2021
Module time:
	user time   =     107.10 seconds =       1.79 minutes
	system time =      18.29 seconds =       0.30 minutes
	total time  =         34 seconds =       0.57 minutes
Total time:
	user time   =     170.35 seconds =       2.84 minutes
	system time =      19.63 seconds =       0.33 minutes
	total time  =         42 seconds =       0.70 minutes
            **************************
            *                        *
            *        CCENERGY        *
            *                        *
            **************************

    Nuclear Rep. energy (wfn)     =   22.864405281881854
    SCF energy          (wfn)     = -150.874531290111037
    Reference energy    (file100) = -150.874531290113367

    Input parameters:
    -----------------
    Wave function   =     CCSD_T
    Reference wfn   =     UHF
    Brueckner       =     No
    Memory (Mbytes) =     4000.0
    Maxiter         =     50
    R_Convergence   =     1.0e-10
    E_Convergence   =     1.0e-10
    Restart         =     Yes
    DIIS            =     Yes
    AO Basis        =     NONE
    ABCD            =     NEW
    Cache Level     =     2
    Cache Type      =     LRU
    Print Level     =     1
    Num. of threads =     12
    # Amps to Print =     10
    Print MP2 Amps? =     No
    Analyze T2 Amps =     No
    Print Pair Ener =     No
    Local CC        =     No
    SCS-MP2         =     False
    SCSN-MP2        =     False
    SCS-CCSD        =     False

MP2 correlation energy -0.4164485120360595
                Solving CC Amplitude Equations
                ------------------------------
  Iter             Energy              RMS        T1Diag      D1Diag    New D1Diag    D2Diag
  ----     ---------------------    ---------   ----------  ----------  ----------   --------
     0        -0.416448512036060    0.000e+00    0.000000    0.000000    0.000000    0.000000
     1        -0.427217084731272    5.675e-02    0.010523    0.000000    0.000000    0.000000
     2        -0.435293911435409    1.684e-02    0.011012    0.000000    0.000000    0.000000
     3        -0.437404189766676    8.554e-03    0.012878    0.000000    0.000000    0.000000
     4        -0.437279250613607    2.532e-03    0.013245    0.000000    0.000000    0.000000
     5        -0.437264194673252    1.326e-03    0.013402    0.000000    0.000000    0.000000
     6        -0.437291552485490    5.159e-04    0.013425    0.000000    0.000000    0.000000
     7        -0.437296371751111    2.673e-04    0.013420    0.000000    0.000000    0.000000
     8        -0.437296926671375    9.670e-05    0.013415    0.000000    0.000000    0.000000
     9        -0.437298332251198    6.952e-05    0.013416    0.000000    0.000000    0.000000
    10        -0.437296779662710    5.825e-05    0.013417    0.000000    0.000000    0.000000
    11        -0.437296904551926    5.502e-05    0.013418    0.000000    0.000000    0.000000
    12        -0.437296707507225    5.330e-05    0.013420    0.000000    0.000000    0.000000
    13        -0.437296687385355    5.235e-05    0.013422    0.000000    0.000000    0.000000
    14        -0.437297611551900    5.104e-05    0.013433    0.000000    0.000000    0.000000
    15        -0.437297952538915    4.657e-05    0.013479    0.000000    0.000000    0.000000
    16        -0.437297710747089    3.354e-05    0.013599    0.000000    0.000000    0.000000
    17        -0.437297421678269    1.701e-05    0.013671    0.000000    0.000000    0.000000
    18        -0.437297275196840    7.985e-06    0.013692    0.000000    0.000000    0.000000
    19        -0.437297518924762    3.514e-06    0.013698    0.000000    0.000000    0.000000
    20        -0.437297637419064    1.549e-06    0.013698    0.000000    0.000000    0.000000
    21        -0.437297643869767    6.184e-07    0.013699    0.000000    0.000000    0.000000
    22        -0.437297644782028    2.795e-07    0.013699    0.000000    0.000000    0.000000
    23        -0.437297644097913    1.400e-07    0.013699    0.000000    0.000000    0.000000
    24        -0.437297643306957    5.346e-08    0.013699    0.000000    0.000000    0.000000
    25        -0.437297644197935    2.652e-08    0.013699    0.000000    0.000000    0.000000
    26        -0.437297644627043    1.855e-08    0.013699    0.000000    0.000000    0.000000
    27        -0.437297644753561    1.687e-08    0.013699    0.000000    0.000000    0.000000
    28        -0.437297644732272    1.627e-08    0.013699    0.000000    0.000000    0.000000
    29        -0.437297644640201    1.586e-08    0.013699    0.000000    0.000000    0.000000
    30        -0.437297644457668    1.535e-08    0.013699    0.000000    0.000000    0.000000
    31        -0.437297644492827    1.380e-08    0.013699    0.000000    0.000000    0.000000
    32        -0.437297644733943    8.764e-09    0.013699    0.000000    0.000000    0.000000
    33        -0.437297644821538    4.059e-09    0.013699    0.000000    0.000000    0.000000
    34        -0.437297644876590    1.739e-09    0.013699    0.000000    0.000000    0.000000
    35        -0.437297644882952    6.790e-10    0.013699    0.000000    0.000000    0.000000
    36        -0.437297644882068    2.695e-10    0.013699    0.000000    0.000000    0.000000

      * MP2 total energy                      = -151.290979802149423
      * CCSD total energy                     = -151.311828934994764
      * CCSD(T) total energy                     = -151.324169183413517
*** Psi4 exiting successfully. Buy a developer a beer!
