                               Psi4 1.3.2 release

  ==> Input File <==

--------------------------------------------------------------------------
memory 4 GB

molecule  {
0 3
O    0.000000000000    0.000000000000   -1.334443217500
H    0.000000000000   -0.764019785700   -0.746913792381
H   -0.000000000000    0.764019785700   -0.746913792381
O    0.000000000000    0.000000000000    1.428567935860
}
set {
basis aug-cc-pvtz
reference uhf
e_convergence 10
scf_type pk
freeze_core true
}

set ccenergy {
e_convergence 10
r_convergence 10
}

e = energy('ccsd(t)')

print_out('Stephenergy {}'.format(e))

--------------------------------------------------------------------------

    Molecular point group: c2v

    Geometry (in Angstrom), charge = 0, multiplicity = 3:

       Center              X                  Y                   Z               Mass
    ------------   -----------------  -----------------  -----------------  -----------------
         O           -0.000000000000     0.000000000000    -1.334443217500    15.994914619570
         H            0.000000000000    -0.764019785700    -0.746913792381     1.007825032230
         H           -0.000000000000     0.764019785700    -0.746913792381     1.007825032230
         O           -0.000000000000     0.000000000000     1.428567935860    15.994914619570

  Charge       = 0
  Multiplicity = 3
  Basis Set: AUG-CC-PVTZ
    Blend: AUG-CC-PVTZ

    Orbital Energies [Eh]
    ---------------------

    Alpha Occupied:

       1A1   -20.732994     2A1   -20.556119     3A1    -1.445279
       4A1    -1.339829     1B2    -0.737671     1B1    -0.734917
       2B2    -0.703714     5A1    -0.648181     6A1    -0.564099
       2B1    -0.499682

    Alpha Virtual:

       7A1     0.036099     3B2     0.048387     8A1     0.127568
       3B1     0.130886     9A1     0.155195     4B2     0.160342
       5B2     0.186211     4B1     0.188963    10A1     0.193251
       1A2     0.263491    11A1     0.265222     6B2     0.270528
      12A1     0.282069     5B1     0.334865     7B2     0.389471
      13A1     0.401157    14A1     0.452552     8B2     0.475174
       2A2     0.620707     9B2     0.637188    15A1     0.641225
       6B1     0.658482    16A1     0.671451    17A1     0.711716
       3A2     0.727716    10B2     0.758759    18A1     0.762203
       7B1     0.791363     8B1     0.829561    11B2     0.854971
      19A1     0.879506     9B1     0.922899    12B2     0.941974
       4A2     0.967085    20A1     0.977440    10B1     1.020065
      21A1     1.025446    13B2     1.051379    14B2     1.087611
      22A1     1.096416    23A1     1.163021     5A2     1.202688
      11B1     1.203459    24A1     1.223216    15B2     1.260607
      16B2     1.397921     6A2     1.513326    25A1     1.541467
      12B1     1.593924    17B2     1.788612    26A1     1.792338
      27A1     1.842478    18B2     1.952328    13B1     1.977884
      28A1     2.025512     7A2     2.025818    19B2     2.038079
      29A1     2.053274    14B1     2.053740    30A1     2.131572
       8A2     2.132001    20B2     2.163764    15B1     2.181147
      31A1     2.219324    32A1     2.363594     9A2     2.366992
      16B1     2.392254    21B2     2.397660    33A1     2.453607
      34A1     2.518724    17B1     2.534223    22B2     2.537740
      35A1     2.690199    18B1     2.737119    23B2     2.738386
      36A1     2.887067    10A2     2.889945    24B2     2.920383
      25B2     3.675496    37A1     3.785492    11A2     4.041365
      19B1     4.065868    20B1     4.118307    26B2     4.159476
      38A1     4.245614    27B2     4.271992    21B1     4.310751
      12A2     4.389146    39A1     4.394981    22B1     4.437777
      28B2     4.602852    40A1     4.603471    41A1     4.751259
      29B2     4.874931    30B2     5.150914    13A2     5.156380
      31B2     5.283035    42A1     5.365396    23B1     5.517688
      43A1     5.697451    44A1     6.207962    24B1     6.314575
      32B2     6.320727    14A2     6.419079    45A1     6.441306
      25B1     6.465419    33B2     6.530672    46A1     6.573206
      34B2     6.648779    26B1     6.778499    15A2     6.826850
      47A1     6.829100    27B1     6.941688    48A1     6.950165
      35B2     6.996955    49A1     7.047758    28B1     7.166130
      29B1     7.267562    16A2     7.313718    17A2     7.368184
      50A1     7.377648    36B2     7.382615    51A1     7.578057
      37B2     7.939493    52A1     7.965870    38B2     8.796561
      53A1     9.337261    54A1    15.727381

    Beta Occupied:

       1A1   -20.654805     2A1   -20.556200     3A1    -1.340957
       4A1    -1.103569     1B2    -0.705424     5A1    -0.594221
       6A1    -0.530054     1B1    -0.499303

    Beta Virtual:

       2B2     0.031025     7A1     0.037425     2B1     0.046346
       3B2     0.068741     8A1     0.132217     9A1     0.157728
       3B1     0.161588     4B2     0.177627    10A1     0.193962
       4B1     0.226346     5B2     0.229089     1A2     0.264434
      11A1     0.268915     6B2     0.271562    12A1     0.290576
       5B1     0.339446     7B2     0.402304    13A1     0.405276
      14A1     0.454668     8B2     0.475529     9B2     0.637568
       2A2     0.652926     6B1     0.667793    15A1     0.667955
      16A1     0.682546    17A1     0.713195     3A2     0.728711
      18A1     0.775955    10B2     0.778042     7B1     0.801591
      19A1     0.882965     8B1     0.917021    11B2     0.932849
       9B1     0.937635    12B2     0.961899     4A2     0.970625
      20A1     0.979162    21A1     1.029354    10B1     1.052551
      13B2     1.056607    22A1     1.103431    14B2     1.115272
      23A1     1.199961     5A2     1.203849    11B1     1.221134
      24A1     1.227768    15B2     1.261167    16B2     1.418126
       6A2     1.513921    25A1     1.553374    12B1     1.594697
      17B2     1.790732    26A1     1.809027    27A1     1.860765
      18B2     1.964847    13B1     2.013150    19B2     2.063076
      28A1     2.070540    14B1     2.090117    29A1     2.112256
       7A2     2.123854     8A2     2.201045    30A1     2.215853
      15B1     2.228535    20B2     2.231358    31A1     2.244510
       9A2     2.375107    32A1     2.388679    16B1     2.406342
      21B2     2.418025    33A1     2.457418    34A1     2.523800
      17B1     2.537062    22B2     2.545156    35A1     2.695701
      18B1     2.737386    23B2     2.741212    36A1     2.888814
      10A2     2.890022    24B2     2.921004    25B2     3.676723
      37A1     3.787790    11A2     4.041488    19B1     4.115193
      20B1     4.229842    38A1     4.252590    26B2     4.261778
      21B1     4.318191    27B2     4.329854    12A2     4.389196
      39A1     4.407044    22B1     4.441115    28B2     4.608641
      40A1     4.633078    41A1     4.751535    29B2     4.876329
      30B2     5.151391    13A2     5.156524    31B2     5.283387
      42A1     5.365795    23B1     5.517760    43A1     5.698063
      44A1     6.213395    24B1     6.422455    32B2     6.428543
      14A2     6.495361    45A1     6.513752    25B1     6.521326
      33B2     6.535961    46A1     6.616642    34B2     6.699519
      26B1     6.779551    47A1     6.948778    15A2     7.014298
      48A1     7.021067    27B1     7.049685    35B2     7.104134
      49A1     7.127533    28B1     7.168496    29B1     7.267777
      16A2     7.313914    17A2     7.368529    50A1     7.378004
      36B2     7.382769    51A1     7.579717    37B2     7.939678
      52A1     7.966716    38B2     8.796349    53A1     9.413265
      54A1    15.727384

    Final Occupation by Irrep:
             A1    A2    B1    B2
    DOCC [     6,    0,    1,    1 ]
    SOCC [     0,    0,    1,    1 ]

  @UHF Final Energy:  -150.86790337064247

   => Energetics <=

    Nuclear Repulsion Energy =             25.0605949268059049
    One-Electron Energy =                -257.9099795740475543
    Two-Electron Energy =                  81.9814812765991974
    Total Energy =                       -150.8679033706424661

  UHF NO Occupations:
  HONO-2 :    6 A1 1.9971195
  HONO-1 :    2 B1 1.0000000
  HONO-0 :    2 B2 1.0000000
  LUNO+0 :    7 A1 0.0028805
  LUNO+1 :    8 A1 0.0014913
  LUNO+2 :    9 A1 0.0000052
  LUNO+3 :    3 B1 0.0000046

Computation Completed

Properties will be evaluated at   0.000000,   0.000000,   0.000000 [a0]

Properties computed using the SCF density matrix

  Nuclear Dipole Moment: [e a0]
     X:    -0.0000      Y:     0.0000      Z:    -1.4000

  Electronic Dipole Moment: [e a0]
     X:     0.0000      Y:     0.0000      Z:     2.2547

  Dipole Moment: [e a0]
     X:    -0.0000      Y:     0.0000      Z:     0.8547     Total:     0.8547

  Dipole Moment: [D]
     X:    -0.0000      Y:     0.0000      Z:     2.1725     Total:     2.1725

*** tstop() called on c5-7.compute.lan at Wed Mar 10 09:20:01 2021
Module time:
	user time   =      31.71 seconds =       0.53 minutes
	system time =       1.31 seconds =       0.02 minutes
	total time  =          7 seconds =       0.12 minutes
Total time:
	user time   =      31.71 seconds =       0.53 minutes
	system time =       1.31 seconds =       0.02 minutes
	total time  =          7 seconds =       0.12 minutes
 MINTS: Wrapper to libmints.
   by Justin Turney

   Calculation information:
      Number of threads:                12
      Number of atoms:                   4
      Number of AO shells:              46
      Number of SO shells:              37
      Number of primitives:             82
      Number of atomic orbitals:       160
      Number of basis functions:       138

      Number of irreps:                  4
      Integral cutoff                 0.00e+00
      Number of functions per irrep: [  54   17   29   38 ]

 OEINTS: Overlap, kinetic, potential, dipole, and quadrupole integrals
         stored in file 35.

      Computing two-electron integrals...done
      Computed 11523092 non-zero two-electron integrals.
        Stored in file 33.

*** tstart() called on c5-7.compute.lan
*** at Wed Mar 10 09:20:04 2021

	Wfn Parameters:
	--------------------
	Wavefunction         = CCSD_T
	Number of irreps     = 4
	Number of MOs        = 138
	Number of active MOs = 136
	AO-Basis             = NONE
	Semicanonical        = false
	Reference            = UHF
	Print Level          = 1

	IRREP	# MOs	# FZDC	# DOCC	# SOCC	# VIRT	# FZVR
	-----	-----	------	------	------	------	------
	 A1	   54	    2	    4	    0	    48	    0
	 A2	   17	    0	    0	    0	    17	    0
	 B1	   29	    0	    1	    1	    27	    0
	 B2	   38	    0	    1	    1	    36	    0
	Transforming integrals...
	IWL integrals will be deleted.
	(OO|OO)...
	Presorting SO-basis two-electron integrals.
	Sorting File: SO Ints (nn|nn) nbuckets = 1
	Transforming the one-electron integrals and constructing Fock matrices
	Starting AA/AB first half-transformation.
	Sorting AA/AB half-transformed integrals.
	Starting BB first half-transformation.
	Sorting BB half-transformed integrals.
	First half integral transformation complete.
	Starting AA second half-transformation.
	Starting AB second half-transformation.
	Starting BB second half-transformation.
	Two-electron integral transformation complete.
	(OO|OV)...
	Starting AA second half-transformation.
	Starting AB second half-transformation.
	Starting BB second half-transformation.
	Two-electron integral transformation complete.
	(OO|VV)...
	Starting AA second half-transformation.
	Starting AB second half-transformation.
	Starting BB second half-transformation.
	Two-electron integral transformation complete.
	(OV|OO)...
	Starting AA/AB first half-transformation.
	Sorting AA/AB half-transformed integrals.
	Starting BB first half-transformation.
	Sorting BB half-transformed integrals.
	First half integral transformation complete.
	Starting AA second half-transformation.
	Starting AB second half-transformation.
	Starting BB second half-transformation.
	Two-electron integral transformation complete.
	(OV|OV)...
	Starting AA second half-transformation.
	Starting AB second half-transformation.
	Starting BB second half-transformation.
	Two-electron integral transformation complete.
	(OV|VV)...
	Starting AA second half-transformation.
	Starting AB second half-transformation.
	Starting BB second half-transformation.
	Two-electron integral transformation complete.
	(VV|OO)...
	Starting AA/AB first half-transformation.
	Sorting AA/AB half-transformed integrals.
	Starting BB first half-transformation.
	Sorting BB half-transformed integrals.
	First half integral transformation complete.
	Starting AA second half-transformation.
	Starting AB second half-transformation.
	Starting BB second half-transformation.
	Two-electron integral transformation complete.
	(VV|OV)...
	Starting AA second half-transformation.
	Starting AB second half-transformation.
	Starting BB second half-transformation.
	Two-electron integral transformation complete.
	(VV|VV)...
	Starting AA second half-transformation.
	Starting AB second half-transformation.
	Starting BB second half-transformation.
	Two-electron integral transformation complete.
	Frozen core energy     =   -126.68786433734851

	Size of irrep 0 of <AB|CD> integrals:      5.040 (MW) /     40.320 (MB)
	Size of irrep 1 of <AB|CD> integrals:      3.197 (MW) /     25.576 (MB)
	Size of irrep 2 of <AB|CD> integrals:      3.640 (MW) /     29.124 (MB)
	Size of irrep 3 of <AB|CD> integrals:      4.783 (MW) /     38.264 (MB)
	Total:                                    16.660 (MW) /    133.283 (MB)

	Size of irrep 0 of <ab|cd> integrals:      5.327 (MW) /     42.615 (MB)
	Size of irrep 1 of <ab|cd> integrals:      3.430 (MW) /     27.439 (MB)
	Size of irrep 2 of <ab|cd> integrals:      3.893 (MW) /     31.142 (MB)
	Size of irrep 3 of <ab|cd> integrals:      5.072 (MW) /     40.572 (MB)
	Total:                                    17.721 (MW) /    141.768 (MB)

	Size of irrep 0 of <Ab|Cd> integrals:     21.912 (MW) /    175.294 (MB)
	Size of irrep 1 of <Ab|Cd> integrals:     13.242 (MW) /    105.939 (MB)
	Size of irrep 2 of <Ab|Cd> integrals:     15.062 (MW) /    120.497 (MB)
	Size of irrep 3 of <Ab|Cd> integrals:     19.705 (MW) /    157.638 (MB)
	Total:                                    69.921 (MW) /    559.368 (MB)

	Size of irrep 0 of <IA|BC> integrals:      1.469 (MW) /     11.748 (MB)
	Size of irrep 1 of <IA|BC> integrals:      0.694 (MW) /      5.550 (MB)
	Size of irrep 2 of <IA|BC> integrals:      0.908 (MW) /      7.266 (MB)
	Size of irrep 3 of <IA|BC> integrals:      1.198 (MW) /      9.588 (MB)
	Total:                                     4.269 (MW) /     34.152 (MB)

	Size of irrep 0 of <ia|bc> integrals:      1.220 (MW) /      9.758 (MB)
	Size of irrep 1 of <ia|bc> integrals:      0.493 (MW) /      3.941 (MB)
	Size of irrep 2 of <ia|bc> integrals:      0.698 (MW) /      5.588 (MB)
	Size of irrep 3 of <ia|bc> integrals:      0.959 (MW) /      7.675 (MB)
	Total:                                     3.370 (MW) /     26.961 (MB)

	Size of irrep 0 of <Ia|Bc> integrals:      1.507 (MW) /     12.058 (MB)
	Size of irrep 1 of <Ia|Bc> integrals:      0.721 (MW) /      5.764 (MB)
	Size of irrep 2 of <Ia|Bc> integrals:      0.939 (MW) /      7.514 (MB)
	Size of irrep 3 of <Ia|Bc> integrals:      1.234 (MW) /      9.872 (MB)
	Total:                                     4.401 (MW) /     35.208 (MB)

	Size of irrep 0 of <iA|bC> integrals:      1.194 (MW) /      9.549 (MB)
	Size of irrep 1 of <iA|bC> integrals:      0.477 (MW) /      3.814 (MB)
	Size of irrep 2 of <iA|bC> integrals:      0.671 (MW) /      5.371 (MB)
	Size of irrep 3 of <iA|bC> integrals:      0.928 (MW) /      7.422 (MB)
	Total:                                     3.270 (MW) /     26.156 (MB)

	Size of irrep 0 of tIjAb amplitudes:       0.094 (MW) /      0.749 (MB)
	Size of irrep 1 of tIjAb amplitudes:       0.015 (MW) /      0.116 (MB)
	Size of irrep 2 of tIjAb amplitudes:       0.047 (MW) /      0.373 (MB)
	Size of irrep 3 of tIjAb amplitudes:       0.053 (MW) /      0.426 (MB)
	Total:                                     0.208 (MW) /      1.664 (MB)

	Nuclear Rep. energy          =     25.06059492680590
	SCF energy                   =   -150.86790337064247
	One-electron energy          =    -87.03436780521267
	Two-electron (AA) energy     =     10.56533950010728
	Two-electron (BB) energy     =      5.61502052216256
	Two-electron (AB) energy     =     21.61337382284184
	Two-electron energy          =     37.79373384511168
	Reference energy             =   -150.86790337064360

*** tstop() called on c5-7.compute.lan at Wed Mar 10 09:20:27 2021
Module time:
	user time   =      56.90 seconds =       0.95 minutes
	system time =       9.79 seconds =       0.16 minutes
	total time  =         23 seconds =       0.38 minutes
Total time:
	user time   =      92.28 seconds =       1.54 minutes
	system time =      11.44 seconds =       0.19 minutes
	total time  =         33 seconds =       0.55 minutes
            **************************
            *                        *
            *        CCENERGY        *
            *                        *
            **************************

    Nuclear Rep. energy (wfn)     =   25.060594926805905
    SCF energy          (wfn)     = -150.867903370642466
    Reference energy    (file100) = -150.867903370643603

    Input parameters:
    -----------------
    Wave function   =     CCSD_T
    Reference wfn   =     UHF
    Brueckner       =     No
    Memory (Mbytes) =     4000.0
    Maxiter         =     50
    R_Convergence   =     1.0e-10
    E_Convergence   =     1.0e-10
    Restart         =     Yes
    DIIS            =     Yes
    AO Basis        =     NONE
    ABCD            =     NEW
    Cache Level     =     2
    Cache Type      =     LRU
    Print Level     =     1
    Num. of threads =     12
    # Amps to Print =     10
    Print MP2 Amps? =     No
    Analyze T2 Amps =     No
    Print Pair Ener =     No
    Local CC        =     No
    SCS-MP2         =     False
    SCSN-MP2        =     False
    SCS-CCSD        =     False

MP2 correlation energy -0.4172268343355420
                Solving CC Amplitude Equations
                ------------------------------
  Iter             Energy              RMS        T1Diag      D1Diag    New D1Diag    D2Diag
  ----     ---------------------    ---------   ----------  ----------  ----------   --------
     0        -0.417226834335542    0.000e+00    0.000000    0.000000    0.000000    0.000000
     1        -0.428101316285676    5.705e-02    0.010644    0.000000    0.000000    0.000000
     2        -0.436262407802084    1.691e-02    0.011229    0.000000    0.000000    0.000000
     3        -0.438348114245736    8.972e-03    0.013212    0.000000    0.000000    0.000000
     4        -0.438229702343730    2.725e-03    0.013684    0.000000    0.000000    0.000000
     5        -0.438204688489496    1.725e-03    0.013930    0.000000    0.000000    0.000000
     6        -0.438241333961446    7.295e-04    0.014035    0.000000    0.000000    0.000000
     7        -0.438246946661650    4.577e-04    0.014072    0.000000    0.000000    0.000000
     8        -0.438246745438307    1.846e-04    0.014088    0.000000    0.000000    0.000000
     9        -0.438248270020780    9.550e-05    0.014101    0.000000    0.000000    0.000000
    10        -0.438245389476273    4.096e-05    0.014107    0.000000    0.000000    0.000000
    11        -0.438245909405737    1.746e-05    0.014110    0.000000    0.000000    0.000000
    12        -0.438245894674367    6.601e-06    0.014111    0.000000    0.000000    0.000000
    13        -0.438245950115053    2.387e-06    0.014111    0.000000    0.000000    0.000000
    14        -0.438246052653430    9.567e-07    0.014111    0.000000    0.000000    0.000000
    15        -0.438246061417819    3.271e-07    0.014111    0.000000    0.000000    0.000000
    16        -0.438246062803304    1.686e-07    0.014111    0.000000    0.000000    0.000000
    17        -0.438246064285604    6.719e-08    0.014111    0.000000    0.000000    0.000000
    18        -0.438246062657155    3.285e-08    0.014111    0.000000    0.000000    0.000000

      * MP2 total energy                      = -151.285130204979140
      * CCSD total energy                     = -151.306149433053832
      * CCSD(T) total energy                     = -151.318610742112355
*** Psi4 exiting successfully. Buy a developer a beer!
