                               Psi4 1.3.2 release

  ==> Input File <==

--------------------------------------------------------------------------
memory 4 GB

molecule  {
0 3
O   -1.638982113600   -0.022705896200    0.000000000000
H   -0.676942049300   -0.024531189300    0.000000000000
H   -1.864831773100    0.912120416200    0.000000000000
O    1.799136971900   -0.033220294300    0.000000000000
}
set {
basis aug-cc-pvtz
reference uhf
e_convergence 10
scf_type pk
freeze_core true
}

set ccenergy {
e_convergence 10
r_convergence 10
}

e = energy('ccsd(t)')

print_out('Stephenergy {}'.format(e))

--------------------------------------------------------------------------

    Molecular point group: cs

    Geometry (in Angstrom), charge = 0, multiplicity = 3:

       Center              X                  Y                   Z               Mass
    ------------   -----------------  -----------------  -----------------  -----------------
         O           -1.638982113598    -0.022705896175     0.000000000000    15.994914619570
         H           -0.676942049298    -0.024531189275     0.000000000000     1.007825032230
         H           -1.864831773098     0.912120416225     0.000000000000     1.007825032230
         O            1.799136971902    -0.033220294275     0.000000000000    15.994914619570

  Charge       = 0
  Multiplicity = 3
  Basis Set: AUG-CC-PVTZ
    Blend: AUG-CC-PVTZ

    Orbital Energies [Eh]
    ---------------------

    Alpha Occupied:

       1Ap   -20.730871     2Ap   -20.561727     3Ap    -1.439680
       4Ap    -1.345721     5Ap    -0.730595     1App   -0.730507
       6Ap    -0.708781     7Ap    -0.632896     8Ap    -0.579100
       2App   -0.504266

    Alpha Virtual:

       9Ap     0.034153    10Ap     0.053409    11Ap     0.128635
       3App    0.132432    12Ap     0.147333    13Ap     0.160374
      14Ap     0.182789     4App    0.183124    15Ap     0.206965
      16Ap     0.235639    17Ap     0.268843     5App    0.280984
      18Ap     0.289431     6App    0.318268    19Ap     0.361892
      20Ap     0.386864    21Ap     0.456956    22Ap     0.554646
       7App    0.603413    23Ap     0.607996    24Ap     0.643142
      25Ap     0.666669     8App    0.686520    26Ap     0.711384
       9App    0.733465    10App    0.747483    27Ap     0.757159
      28Ap     0.788969    11App    0.824992    29Ap     0.837811
      30Ap     0.853897    12App    0.876243    31Ap     0.913753
      32Ap     0.928201    13App    0.937619    33Ap     0.949386
      14App    0.973460    34Ap     0.975955    35Ap     1.038171
      36Ap     1.084615    15App    1.163126    37Ap     1.170477
      16App    1.211241    38Ap     1.219391    39Ap     1.265106
      40Ap     1.276595    17App    1.521428    41Ap     1.531439
      18App    1.589291    42Ap     1.600239    43Ap     1.807438
      44Ap     1.815274    19App    1.978624    45Ap     1.978683
      46Ap     2.004235    20App    2.009460    47Ap     2.018435
      21App    2.034528    48Ap     2.039789    22App    2.089477
      49Ap     2.122485    50Ap     2.138487    23App    2.162546
      51Ap     2.238400    24App    2.286454    52Ap     2.326314
      53Ap     2.368963    25App    2.427748    54Ap     2.452769
      26App    2.458951    55Ap     2.484403    56Ap     2.547086
      57Ap     2.656140    27App    2.722630    58Ap     2.722970
      59Ap     2.855785    60Ap     2.907225    28App    2.934320
      61Ap     3.684395    62Ap     3.811935    29App    4.030451
      30App    4.053873    63Ap     4.068319    31App    4.142952
      64Ap     4.179892    65Ap     4.269616    32App    4.289260
      66Ap     4.359893    33App    4.389477    67Ap     4.425672
      34App    4.429364    68Ap     4.565422    69Ap     4.773912
      70Ap     4.938826    35App    5.152378    71Ap     5.182513
      72Ap     5.294604    73Ap     5.369067    36App    5.527945
      74Ap     5.676449    75Ap     6.194736    37App    6.314017
      76Ap     6.314039    38App    6.366650    77Ap     6.367779
      39App    6.466410    78Ap     6.483584    79Ap     6.530335
      80Ap     6.595623    40App    6.716947    81Ap     6.814172
      41App    6.818183    82Ap     6.919285    42App    6.924695
      83Ap     6.952753    84Ap     7.039123    43App    7.140074
      44App    7.270471    85Ap     7.311726    45App    7.324520
      86Ap     7.353562    46App    7.410399    87Ap     7.635257
      88Ap     7.923245    89Ap     7.956819    90Ap     8.811786
      91Ap     8.989274    92Ap    16.319894

    Beta Occupied:

       1Ap   -20.652126     2Ap   -20.561800     3Ap    -1.346011
       4Ap    -1.097132     5Ap    -0.708586     6Ap    -0.581922
       7Ap    -0.540543     1App   -0.504303

    Beta Virtual:

       8Ap     0.034071     9Ap     0.047356     2App    0.049967
      10Ap     0.058738    11Ap     0.143147    12Ap     0.151704
       3App    0.160102    13Ap     0.179744    14Ap     0.207451
      15Ap     0.217448     4App    0.226531    16Ap     0.244485
      17Ap     0.271250     5App    0.281178    18Ap     0.292095
       6App    0.319751    19Ap     0.365240    20Ap     0.393824
      21Ap     0.457426    22Ap     0.556779     7App    0.636296
      23Ap     0.638272    24Ap     0.646492    25Ap     0.670226
       8App    0.700501    26Ap     0.712020     9App    0.734239
      10App    0.748538    27Ap     0.770987    28Ap     0.800475
      29Ap     0.845084    11App    0.860700    30Ap     0.911856
      12App    0.925621    31Ap     0.928991    32Ap     0.946065
      13App    0.948211    33Ap     0.967209    34Ap     1.008277
      14App    1.022964    35Ap     1.039777    36Ap     1.093611
      15App    1.167557    37Ap     1.173552    16App    1.219010
      38Ap     1.260391    39Ap     1.271101    40Ap     1.284932
      17App    1.522207    41Ap     1.545446    18App    1.590274
      42Ap     1.627035    43Ap     1.810109    44Ap     1.817589
      45Ap     2.015217    19App    2.016783    46Ap     2.016940
      20App    2.038672    47Ap     2.045390    21App    2.124539
      48Ap     2.163207    49Ap     2.173187    22App    2.179275
      50Ap     2.180476    23App    2.213795    51Ap     2.278645
      24App    2.287883    52Ap     2.336185    53Ap     2.385320
      25App    2.431194    54Ap     2.454922    26App    2.466424
      55Ap     2.491196    56Ap     2.552840    57Ap     2.662841
      27App    2.723201    58Ap     2.725036    59Ap     2.859373
      60Ap     2.909098    28App    2.934963    61Ap     3.684667
      62Ap     3.813029    29App    4.031037    30App    4.127242
      63Ap     4.170537    31App    4.239635    64Ap     4.241146
      65Ap     4.276551    32App    4.289293    66Ap     4.376637
      33App    4.389761    34App    4.430864    67Ap     4.456334
      68Ap     4.566175    69Ap     4.774932    70Ap     4.939546
      35App    5.152367    71Ap     5.182912    72Ap     5.294809
      73Ap     5.369869    36App    5.527946    74Ap     5.676773
      75Ap     6.195608    37App    6.422971    76Ap     6.422986
      38App    6.442791    77Ap     6.444075    78Ap     6.518504
      39App    6.522278    79Ap     6.551207    80Ap     6.642633
      40App    6.719338    81Ap     6.920382    41App    7.005564
      82Ap     7.006318    42App    7.034271    83Ap     7.060053
      84Ap     7.122193    43App    7.141925    44App    7.270583
      85Ap     7.311967    45App    7.325077    86Ap     7.353702
      46App    7.410963    87Ap     7.637489    88Ap     7.923620
      89Ap     7.957155    90Ap     8.815365    91Ap     9.063489
      92Ap    16.320192

    Final Occupation by Irrep:
             Ap   App
    DOCC [     7,    1 ]
    SOCC [     1,    1 ]

  @UHF Final Energy:  -150.87464840055230

   => Energetics <=

    Nuclear Repulsion Energy =             21.8311733734378031
    One-Electron Energy =                -251.4550776233665772
    Two-Electron Energy =                  78.7492558493764534
    Total Energy =                       -150.8746484005523314

  UHF NO Occupations:
  HONO-2 :    7 Ap 1.9970404
  HONO-1 :    2App 1.0000000
  HONO-0 :    8 Ap 1.0000000
  LUNO+0 :    9 Ap 0.0029596
  LUNO+1 :   10 Ap 0.0017386
  LUNO+2 :   11 Ap 0.0000024
  LUNO+3 :   12 Ap 0.0000006

Computation Completed

Properties will be evaluated at   0.000000,   0.000000,   0.000000 [a0]

Properties computed using the SCF density matrix

  Nuclear Dipole Moment: [e a0]
     X:    -2.3821      Y:     0.8318      Z:     0.0000

  Electronic Dipole Moment: [e a0]
     X:     2.9380      Y:    -0.2216      Z:     0.0000

  Dipole Moment: [e a0]
     X:     0.5559      Y:     0.6103      Z:     0.0000     Total:     0.8255

  Dipole Moment: [D]
     X:     1.4129      Y:     1.5511      Z:     0.0000     Total:     2.0982

*** tstop() called on c1-9.compute.lan at Tue Mar  9 14:29:36 2021
Module time:
	user time   =      68.78 seconds =       1.15 minutes
	system time =       3.67 seconds =       0.06 minutes
	total time  =          8 seconds =       0.13 minutes
Total time:
	user time   =      68.78 seconds =       1.15 minutes
	system time =       3.67 seconds =       0.06 minutes
	total time  =          8 seconds =       0.13 minutes
 MINTS: Wrapper to libmints.
   by Justin Turney

   Calculation information:
      Number of threads:                12
      Number of atoms:                   4
      Number of AO shells:              46
      Number of SO shells:              46
      Number of primitives:             82
      Number of atomic orbitals:       160
      Number of basis functions:       138

      Number of irreps:                  2
      Integral cutoff                 0.00e+00
      Number of functions per irrep: [  92   46 ]

 OEINTS: Overlap, kinetic, potential, dipole, and quadrupole integrals
         stored in file 35.

      Computing two-electron integrals...done
      Computed 22924060 non-zero two-electron integrals.
        Stored in file 33.

*** tstart() called on c1-9.compute.lan
*** at Tue Mar  9 14:29:39 2021

	Wfn Parameters:
	--------------------
	Wavefunction         = CCSD_T
	Number of irreps     = 2
	Number of MOs        = 138
	Number of active MOs = 136
	AO-Basis             = NONE
	Semicanonical        = false
	Reference            = UHF
	Print Level          = 1

	IRREP	# MOs	# FZDC	# DOCC	# SOCC	# VIRT	# FZVR
	-----	-----	------	------	------	------	------
	 Ap	   92	    2	    5	    1	    84	    0
	 App	   46	    0	    1	    1	    44	    0
	Transforming integrals...
	IWL integrals will be deleted.
	(OO|OO)...
	Presorting SO-basis two-electron integrals.
	Sorting File: SO Ints (nn|nn) nbuckets = 1
	Transforming the one-electron integrals and constructing Fock matrices
	Starting AA/AB first half-transformation.
	Sorting AA/AB half-transformed integrals.
	Starting BB first half-transformation.
	Sorting BB half-transformed integrals.
	First half integral transformation complete.
	Starting AA second half-transformation.
	Starting AB second half-transformation.
	Starting BB second half-transformation.
	Two-electron integral transformation complete.
	(OO|OV)...
	Starting AA second half-transformation.
	Starting AB second half-transformation.
	Starting BB second half-transformation.
	Two-electron integral transformation complete.
	(OO|VV)...
	Starting AA second half-transformation.
	Starting AB second half-transformation.
	Starting BB second half-transformation.
	Two-electron integral transformation complete.
	(OV|OO)...
	Starting AA/AB first half-transformation.
	Sorting AA/AB half-transformed integrals.
	Starting BB first half-transformation.
	Sorting BB half-transformed integrals.
	First half integral transformation complete.
	Starting AA second half-transformation.
	Starting AB second half-transformation.
	Starting BB second half-transformation.
	Two-electron integral transformation complete.
	(OV|OV)...
	Starting AA second half-transformation.
	Starting AB second half-transformation.
	Starting BB second half-transformation.
	Two-electron integral transformation complete.
	(OV|VV)...
	Starting AA second half-transformation.
	Starting AB second half-transformation.
	Starting BB second half-transformation.
	Two-electron integral transformation complete.
	(VV|OO)...
	Starting AA/AB first half-transformation.
	Sorting AA/AB half-transformed integrals.
	Starting BB first half-transformation.
	Sorting BB half-transformed integrals.
	First half integral transformation complete.
	Starting AA second half-transformation.
	Starting AB second half-transformation.
	Starting BB second half-transformation.
	Two-electron integral transformation complete.
	(VV|OV)...
	Starting AA second half-transformation.
	Starting AB second half-transformation.
	Starting BB second half-transformation.
	Two-electron integral transformation complete.
	(VV|VV)...
	Starting AA second half-transformation.
	Starting AB second half-transformation.
	Starting BB second half-transformation.
	Two-electron integral transformation complete.
	Frozen core energy     =   -125.42827979795857

	Size of irrep 0 of <AB|CD> integrals:     19.643 (MW) /    157.141 (MB)
	Size of irrep 1 of <AB|CD> integrals:     13.660 (MW) /    109.283 (MB)
	Total:                                    33.303 (MW) /    266.424 (MB)

	Size of irrep 0 of <ab|cd> integrals:     20.794 (MW) /    166.349 (MB)
	Size of irrep 1 of <ab|cd> integrals:     14.631 (MW) /    117.045 (MB)
	Total:                                    35.424 (MW) /    283.394 (MB)

	Size of irrep 0 of <Ab|Cd> integrals:     83.174 (MW) /    665.395 (MB)
	Size of irrep 1 of <Ab|Cd> integrals:     56.550 (MW) /    452.403 (MB)
	Total:                                   139.725 (MW) /   1117.798 (MB)

	Size of irrep 0 of <IA|BC> integrals:      5.323 (MW) /     42.586 (MB)
	Size of irrep 1 of <IA|BC> integrals:      3.193 (MW) /     25.547 (MB)
	Total:                                     8.517 (MW) /     68.133 (MB)

	Size of irrep 0 of <ia|bc> integrals:      4.348 (MW) /     34.780 (MB)
	Size of irrep 1 of <ia|bc> integrals:      2.372 (MW) /     18.972 (MB)
	Total:                                     6.719 (MW) /     53.752 (MB)

	Size of irrep 0 of <Ia|Bc> integrals:      5.472 (MW) /     43.776 (MB)
	Size of irrep 1 of <Ia|Bc> integrals:      3.309 (MW) /     26.470 (MB)
	Total:                                     8.781 (MW) /     70.246 (MB)

	Size of irrep 0 of <iA|bC> integrals:      4.232 (MW) /     33.853 (MB)
	Size of irrep 1 of <iA|bC> integrals:      2.286 (MW) /     18.289 (MB)
	Total:                                     6.518 (MW) /     52.142 (MB)

	Size of irrep 0 of tIjAb amplitudes:       0.292 (MW) /      2.335 (MB)
	Size of irrep 1 of tIjAb amplitudes:       0.120 (MW) /      0.963 (MB)
	Total:                                     0.412 (MW) /      3.297 (MB)

	Nuclear Rep. energy          =     21.83117337343780
	SCF energy                   =   -150.87464840055230
	One-electron energy          =    -83.10504128912778
	Two-electron (AA) energy     =      9.92353481187153
	Two-electron (BB) energy     =      5.28178221879554
	Two-electron (AB) energy     =     20.62218228242778
	Two-electron energy          =     35.82749931309485
	Reference energy             =   -150.87464840055370

*** tstop() called on c1-9.compute.lan at Tue Mar  9 14:30:32 2021
Module time:
	user time   =     156.93 seconds =       2.62 minutes
	system time =      35.47 seconds =       0.59 minutes
	total time  =         53 seconds =       0.88 minutes
Total time:
	user time   =     232.31 seconds =       3.87 minutes
	system time =      39.94 seconds =       0.67 minutes
	total time  =         64 seconds =       1.07 minutes
            **************************
            *                        *
            *        CCENERGY        *
            *                        *
            **************************

    Nuclear Rep. energy (wfn)     =   21.831173373437803
    SCF energy          (wfn)     = -150.874648400552303
    Reference energy    (file100) = -150.874648400553696

    Input parameters:
    -----------------
    Wave function   =     CCSD_T
    Reference wfn   =     UHF
    Brueckner       =     No
    Memory (Mbytes) =     4000.0
    Maxiter         =     50
    R_Convergence   =     1.0e-10
    E_Convergence   =     1.0e-10
    Restart         =     Yes
    DIIS            =     Yes
    AO Basis        =     NONE
    ABCD            =     NEW
    Cache Level     =     2
    Cache Type      =     LRU
    Print Level     =     1
    Num. of threads =     12
    # Amps to Print =     10
    Print MP2 Amps? =     No
    Analyze T2 Amps =     No
    Print Pair Ener =     No
    Local CC        =     No
    SCS-MP2         =     False
    SCSN-MP2        =     False
    SCS-CCSD        =     False

MP2 correlation energy -0.4160847417566023
                Solving CC Amplitude Equations
                ------------------------------
  Iter             Energy              RMS        T1Diag      D1Diag    New D1Diag    D2Diag
  ----     ---------------------    ---------   ----------  ----------  ----------   --------
     0        -0.416084741756602    0.000e+00    0.000000    0.000000    0.000000    0.000000
     1        -0.426859759416148    5.663e-02    0.010449    0.000000    0.000000    0.000000
     2        -0.434944873024832    1.685e-02    0.010929    0.000000    0.000000    0.000000
     3        -0.437061208013035    8.471e-03    0.012764    0.000000    0.000000    0.000000
     4        -0.436935698796354    2.518e-03    0.013113    0.000000    0.000000    0.000000
     5        -0.436924323136105    1.271e-03    0.013257    0.000000    0.000000    0.000000
     6        -0.436950271371872    5.021e-04    0.013271    0.000000    0.000000    0.000000
     7        -0.436954293168884    2.251e-04    0.013260    0.000000    0.000000    0.000000
     8        -0.436955083012655    7.585e-05    0.013254    0.000000    0.000000    0.000000
     9        -0.436956299959211    4.505e-05    0.013254    0.000000    0.000000    0.000000
    10        -0.436955122829111    3.670e-05    0.013254    0.000000    0.000000    0.000000
    11        -0.436955223989672    3.527e-05    0.013254    0.000000    0.000000    0.000000
    12        -0.436955087004453    3.467e-05    0.013254    0.000000    0.000000    0.000000
    13        -0.436954999266747    3.421e-05    0.013255    0.000000    0.000000    0.000000
    14        -0.436955429712774    3.328e-05    0.013261    0.000000    0.000000    0.000000
    15        -0.436955472584891    3.085e-05    0.013275    0.000000    0.000000    0.000000
    16        -0.436955447132982    2.538e-05    0.013348    0.000000    0.000000    0.000000
    17        -0.436955423491852    1.472e-05    0.013398    0.000000    0.000000    0.000000
    18        -0.436955348579205    6.466e-06    0.013420    0.000000    0.000000    0.000000
    19        -0.436955500704935    2.871e-06    0.013425    0.000000    0.000000    0.000000
    20        -0.436955582382209    1.354e-06    0.013426    0.000000    0.000000    0.000000
    21        -0.436955587986273    5.671e-07    0.013426    0.000000    0.000000    0.000000
    22        -0.436955588296427    2.253e-07    0.013426    0.000000    0.000000    0.000000
    23        -0.436955588854213    9.616e-08    0.013426    0.000000    0.000000    0.000000
    24        -0.436955588735946    4.078e-08    0.013426    0.000000    0.000000    0.000000
    25        -0.436955589391663    2.146e-08    0.013426    0.000000    0.000000    0.000000
    26        -0.436955589770796    7.487e-09    0.013426    0.000000    0.000000    0.000000
    27        -0.436955589844192    2.677e-09    0.013426    0.000000    0.000000    0.000000
    28        -0.436955589868968    1.613e-09    0.013426    0.000000    0.000000    0.000000
    29        -0.436955589869262    1.320e-09    0.013426    0.000000    0.000000    0.000000
    30        -0.436955589859167    1.176e-09    0.013426    0.000000    0.000000    0.000000
    31        -0.436955589850495    1.100e-09    0.013426    0.000000    0.000000    0.000000
    32        -0.436955589844714    1.050e-09    0.013426    0.000000    0.000000    0.000000
    33        -0.436955589841679    9.630e-10    0.013426    0.000000    0.000000    0.000000
    34        -0.436955589842819    7.185e-10    0.013426    0.000000    0.000000    0.000000
    35        -0.436955589844432    3.695e-10    0.013426    0.000000    0.000000    0.000000
    36        -0.436955589845137    1.458e-10    0.013426    0.000000    0.000000    0.000000

      * MP2 total energy                      = -151.290733142310302
      * CCSD total energy                     = -151.311603990397344
      * CCSD(T) total energy                     = -151.323873035525423
*** Psi4 exiting successfully. Buy a developer a beer!
