                               Psi4 1.3.2 release

  ==> Input File <==

--------------------------------------------------------------------------
memory 4 GB

molecule  {
0 1
O    0.000000000000    0.000000000000   -0.066121188674
H    0.000000000000   -0.756802197968    0.524695623526
H   -0.000000000000    0.756802197968    0.524695623526
}
set {
basis aug-cc-pvtz
reference uhf
e_convergence 10
scf_type pk
freeze_core true
}

set ccenergy {
e_convergence 10
r_convergence 10
}

e = energy('ccsd(t)')

print_out('Stephenergy {}'.format(e))

--------------------------------------------------------------------------

    Molecular point group: c2v

    Geometry (in Angstrom), charge = 0, multiplicity = 1:

       Center              X                  Y                   Z               Mass
    ------------   -----------------  -----------------  -----------------  -----------------
         O            0.000000000000     0.000000000000    -0.066121188674    15.994914619570
         H            0.000000000000    -0.756802197968     0.524695623526     1.007825032230
         H           -0.000000000000     0.756802197968     0.524695623526     1.007825032230

  Charge       = 0
  Multiplicity = 1
  Basis Set: AUG-CC-PVTZ
    Blend: AUG-CC-PVTZ

    Orbital Energies [Eh]
    ---------------------

    Alpha Occupied:

       1A1   -20.567906     2A1    -1.352459     1B2    -0.715357
       3A1    -0.585318     1B1    -0.510264

    Alpha Virtual:

       4A1     0.029378     2B2     0.047702     5A1     0.135883
       2B1     0.158732     6A1     0.175218     3B2     0.183096
       4B2     0.227215     7A1     0.244988     1A2     0.265426
       3B1     0.299998     8A1     0.310132     5B2     0.365841
       9A1     0.437586     6B2     0.466262     7B2     0.599215
      10A1     0.658662    11A1     0.707951     2A2     0.722680
       4B1     0.731610    12A1     0.830979     5B1     0.846519
      13A1     0.891995     8B2     0.912738     6B1     0.918018
       3A2     0.922538     9B2     0.930975    14A1     0.961347
      15A1     1.021330    10B2     1.043492     7B1     1.082626
      11B2     1.108624     4A2     1.176509    16A1     1.182305
      12B2     1.260569     5A2     1.510436    17A1     1.534361
       8B1     1.583113    18A1     1.804784    13B2     1.821896
      14B2     1.985170    19A1     2.118457     9B1     2.262803
       6A2     2.315911    20A1     2.326565    21A1     2.418487
      10B1     2.420853    15B2     2.443051    22A1     2.479683
      16B2     2.676269    11B1     2.697648    23A1     2.772123
      17B2     2.815004     7A2     2.884502    18B2     3.654250
      24A1     3.741977     8A2     4.018807    12B1     4.083832
      25A1     4.163201    19B2     4.249067    13B1     4.286640
      26A1     4.373533     9A2     4.377578    14B1     4.405730
      20B2     4.518460    27A1     4.726186    21B2     4.846063
      10A2     5.150390    22B2     5.150775    23B2     5.250599
      28A1     5.326765    15B1     5.524336    29A1     5.662679
      30A1     6.179329    24B2     6.512506    16B1     6.709233
      31A1     6.900446    17B1     7.132221    18B1     7.252147
      25B2     7.300173    11A2     7.314029    32A1     7.329093
      12A2     7.354595    33A1     7.533629    34A1     7.896823
      26B2     7.925926    27B2     8.805496    35A1    15.743000

    Beta Occupied:

       1A1   -20.567906     2A1    -1.352459     1B2    -0.715357
       3A1    -0.585318     1B1    -0.510264

    Beta Virtual:

       4A1     0.029378     2B2     0.047702     5A1     0.135883
       2B1     0.158732     6A1     0.175218     3B2     0.183096
       4B2     0.227215     7A1     0.244988     1A2     0.265426
       3B1     0.299998     8A1     0.310132     5B2     0.365841
       9A1     0.437586     6B2     0.466262     7B2     0.599215
      10A1     0.658662    11A1     0.707951     2A2     0.722680
       4B1     0.731610    12A1     0.830979     5B1     0.846519
      13A1     0.891995     8B2     0.912738     6B1     0.918018
       3A2     0.922538     9B2     0.930975    14A1     0.961347
      15A1     1.021330    10B2     1.043492     7B1     1.082626
      11B2     1.108624     4A2     1.176509    16A1     1.182305
      12B2     1.260569     5A2     1.510436    17A1     1.534361
       8B1     1.583113    18A1     1.804784    13B2     1.821896
      14B2     1.985170    19A1     2.118457     9B1     2.262803
       6A2     2.315911    20A1     2.326565    21A1     2.418487
      10B1     2.420853    15B2     2.443051    22A1     2.479683
      16B2     2.676269    11B1     2.697648    23A1     2.772123
      17B2     2.815004     7A2     2.884502    18B2     3.654250
      24A1     3.741977     8A2     4.018807    12B1     4.083832
      25A1     4.163201    19B2     4.249067    13B1     4.286640
      26A1     4.373533     9A2     4.377578    14B1     4.405730
      20B2     4.518460    27A1     4.726186    21B2     4.846063
      10A2     5.150390    22B2     5.150775    23B2     5.250599
      28A1     5.326765    15B1     5.524336    29A1     5.662679
      30A1     6.179329    24B2     6.512506    16B1     6.709233
      31A1     6.900446    17B1     7.132221    18B1     7.252147
      25B2     7.300173    11A2     7.314029    32A1     7.329093
      12A2     7.354595    33A1     7.533629    34A1     7.896823
      26B2     7.925926    27B2     8.805496    35A1    15.743000

    Final Occupation by Irrep:
             A1    A2    B1    B2
    DOCC [     3,    0,    1,    1 ]
    SOCC [     0,    0,    0,    0 ]

  @UHF Final Energy:   -76.06037440251076

   => Energetics <=

    Nuclear Repulsion Energy =              9.1682099797339127
    One-Electron Energy =                -122.9945622992996164
    Two-Electron Energy =                  37.7659779170549399
    Total Energy =                        -76.0603744025107602

  UHF NO Occupations:
  HONO-2 :    1 B1 2.0000000
  HONO-1 :    2 A1 2.0000000
  HONO-0 :    3 A1 2.0000000
  LUNO+0 :    4 A1 0.0000000
  LUNO+1 :    2 B1 0.0000000
  LUNO+2 :    5 A1 0.0000000
  LUNO+3 :    6 A1 0.0000000

Computation Completed

Properties will be evaluated at   0.000000,   0.000000,   0.000000 [a0]

Properties computed using the SCF density matrix

  Nuclear Dipole Moment: [e a0]
     X:     0.0000      Y:     0.0000      Z:     0.9835

  Electronic Dipole Moment: [e a0]
     X:     0.0000      Y:     0.0000      Z:    -0.1995

  Dipole Moment: [e a0]
     X:     0.0000      Y:     0.0000      Z:     0.7840     Total:     0.7840

  Dipole Moment: [D]
     X:     0.0000      Y:     0.0000      Z:     1.9927     Total:     1.9927

*** tstop() called on d3-15.compute.lan at Mon Mar  8 09:48:52 2021
Module time:
	user time   =      22.72 seconds =       0.38 minutes
	system time =       1.37 seconds =       0.02 minutes
	total time  =          2 seconds =       0.03 minutes
Total time:
	user time   =      22.72 seconds =       0.38 minutes
	system time =       1.37 seconds =       0.02 minutes
	total time  =          2 seconds =       0.03 minutes
 MINTS: Wrapper to libmints.
   by Justin Turney

   Calculation information:
      Number of threads:                12
      Number of atoms:                   3
      Number of AO shells:              32
      Number of SO shells:              23
      Number of primitives:             52
      Number of atomic orbitals:       105
      Number of basis functions:        92

      Number of irreps:                  4
      Integral cutoff                 0.00e+00
      Number of functions per irrep: [  35   12   18   27 ]

 OEINTS: Overlap, kinetic, potential, dipole, and quadrupole integrals
         stored in file 35.

      Computing two-electron integrals...done
      Computed 2240309 non-zero two-electron integrals.
        Stored in file 33.

*** tstart() called on d3-15.compute.lan
*** at Mon Mar  8 09:48:53 2021

	Wfn Parameters:
	--------------------
	Wavefunction         = CCSD_T
	Number of irreps     = 4
	Number of MOs        = 92
	Number of active MOs = 91
	AO-Basis             = NONE
	Semicanonical        = false
	Reference            = UHF
	Print Level          = 1

	IRREP	# MOs	# FZDC	# DOCC	# SOCC	# VIRT	# FZVR
	-----	-----	------	------	------	------	------
	 A1	   35	    1	    2	    0	    32	    0
	 A2	   12	    0	    0	    0	    12	    0
	 B1	   18	    0	    1	    0	    17	    0
	 B2	   27	    0	    1	    0	    26	    0
	Transforming integrals...
	IWL integrals will be deleted.
	(OO|OO)...
	Presorting SO-basis two-electron integrals.
	Sorting File: SO Ints (nn|nn) nbuckets = 1
	Transforming the one-electron integrals and constructing Fock matrices
	Starting AA/AB first half-transformation.
	Sorting AA/AB half-transformed integrals.
	Starting BB first half-transformation.
	Sorting BB half-transformed integrals.
	First half integral transformation complete.
	Starting AA second half-transformation.
	Starting AB second half-transformation.
	Starting BB second half-transformation.
	Two-electron integral transformation complete.
	(OO|OV)...
	Starting AA second half-transformation.
	Starting AB second half-transformation.
	Starting BB second half-transformation.
	Two-electron integral transformation complete.
	(OO|VV)...
	Starting AA second half-transformation.
	Starting AB second half-transformation.
	Starting BB second half-transformation.
	Two-electron integral transformation complete.
	(OV|OO)...
	Starting AA/AB first half-transformation.
	Sorting AA/AB half-transformed integrals.
	Starting BB first half-transformation.
	Sorting BB half-transformed integrals.
	First half integral transformation complete.
	Starting AA second half-transformation.
	Starting AB second half-transformation.
	Starting BB second half-transformation.
	Two-electron integral transformation complete.
	(OV|OV)...
	Starting AA second half-transformation.
	Starting AB second half-transformation.
	Starting BB second half-transformation.
	Two-electron integral transformation complete.
	(OV|VV)...
	Starting AA second half-transformation.
	Starting AB second half-transformation.
	Starting BB second half-transformation.
	Two-electron integral transformation complete.
	(VV|OO)...
	Starting AA/AB first half-transformation.
	Sorting AA/AB half-transformed integrals.
	Starting BB first half-transformation.
	Sorting BB half-transformed integrals.
	First half integral transformation complete.
	Starting AA second half-transformation.
	Starting AB second half-transformation.
	Starting BB second half-transformation.
	Two-electron integral transformation complete.
	(VV|OV)...
	Starting AA second half-transformation.
	Starting AB second half-transformation.
	Starting BB second half-transformation.
	Two-electron integral transformation complete.
	(VV|VV)...
	Starting AA second half-transformation.
	Starting AB second half-transformation.
	Starting BB second half-transformation.
	Two-electron integral transformation complete.
	Frozen core energy     =    -61.31010638556854

	Size of irrep 0 of <AB|CD> integrals:      1.047 (MW) /      8.372 (MB)
	Size of irrep 1 of <AB|CD> integrals:      0.682 (MW) /      5.458 (MB)
	Size of irrep 2 of <AB|CD> integrals:      0.733 (MW) /      5.862 (MB)
	Size of irrep 3 of <AB|CD> integrals:      1.073 (MW) /      8.586 (MB)
	Total:                                     3.535 (MW) /     28.279 (MB)

	Size of irrep 0 of <ab|cd> integrals:      1.047 (MW) /      8.372 (MB)
	Size of irrep 1 of <ab|cd> integrals:      0.682 (MW) /      5.458 (MB)
	Size of irrep 2 of <ab|cd> integrals:      0.733 (MW) /      5.862 (MB)
	Size of irrep 3 of <ab|cd> integrals:      1.073 (MW) /      8.586 (MB)
	Total:                                     3.535 (MW) /     28.279 (MB)

	Size of irrep 0 of <Ab|Cd> integrals:      4.550 (MW) /     36.398 (MB)
	Size of irrep 1 of <Ab|Cd> integrals:      2.729 (MW) /     21.833 (MB)
	Size of irrep 2 of <Ab|Cd> integrals:      2.931 (MW) /     23.448 (MB)
	Size of irrep 3 of <Ab|Cd> integrals:      4.293 (MW) /     34.345 (MB)
	Total:                                    14.503 (MW) /    116.023 (MB)

	Size of irrep 0 of <IA|BC> integrals:      0.228 (MW) /      1.826 (MB)
	Size of irrep 1 of <IA|BC> integrals:      0.111 (MW) /      0.885 (MB)
	Size of irrep 2 of <IA|BC> integrals:      0.134 (MW) /      1.068 (MB)
	Size of irrep 3 of <IA|BC> integrals:      0.199 (MW) /      1.591 (MB)
	Total:                                     0.671 (MW) /      5.371 (MB)

	Size of irrep 0 of <ia|bc> integrals:      0.228 (MW) /      1.826 (MB)
	Size of irrep 1 of <ia|bc> integrals:      0.111 (MW) /      0.885 (MB)
	Size of irrep 2 of <ia|bc> integrals:      0.134 (MW) /      1.068 (MB)
	Size of irrep 3 of <ia|bc> integrals:      0.199 (MW) /      1.591 (MB)
	Total:                                     0.671 (MW) /      5.371 (MB)

	Size of irrep 0 of <Ia|Bc> integrals:      0.228 (MW) /      1.826 (MB)
	Size of irrep 1 of <Ia|Bc> integrals:      0.111 (MW) /      0.885 (MB)
	Size of irrep 2 of <Ia|Bc> integrals:      0.134 (MW) /      1.068 (MB)
	Size of irrep 3 of <Ia|Bc> integrals:      0.199 (MW) /      1.591 (MB)
	Total:                                     0.671 (MW) /      5.371 (MB)

	Size of irrep 0 of <iA|bC> integrals:      0.228 (MW) /      1.826 (MB)
	Size of irrep 1 of <iA|bC> integrals:      0.111 (MW) /      0.885 (MB)
	Size of irrep 2 of <iA|bC> integrals:      0.134 (MW) /      1.068 (MB)
	Size of irrep 3 of <iA|bC> integrals:      0.199 (MW) /      1.591 (MB)
	Total:                                     0.671 (MW) /      5.371 (MB)

	Size of irrep 0 of tIjAb amplitudes:       0.013 (MW) /      0.102 (MB)
	Size of irrep 1 of tIjAb amplitudes:       0.003 (MW) /      0.026 (MB)
	Size of irrep 2 of tIjAb amplitudes:       0.007 (MW) /      0.055 (MB)
	Size of irrep 3 of tIjAb amplitudes:       0.008 (MW) /      0.066 (MB)
	Total:                                     0.031 (MW) /      0.250 (MB)

	Nuclear Rep. energy          =      9.16820997973391
	SCF energy                   =    -76.06037440251076
	One-electron energy          =    -41.51016095550025
	Two-electron (AA) energy     =      3.41957066627031
	Two-electron (BB) energy     =      3.41957066627031
	Two-electron (AB) energy     =     10.75254162628332
	Two-electron energy          =     17.59168295882395
	Reference energy             =    -76.06037440251093

*** tstop() called on d3-15.compute.lan at Mon Mar  8 09:49:12 2021
Module time:
	user time   =     165.01 seconds =       2.75 minutes
	system time =       9.24 seconds =       0.15 minutes
	total time  =         19 seconds =       0.32 minutes
Total time:
	user time   =     191.35 seconds =       3.19 minutes
	system time =      10.88 seconds =       0.18 minutes
	total time  =         22 seconds =       0.37 minutes
            **************************
            *                        *
            *        CCENERGY        *
            *                        *
            **************************

    Nuclear Rep. energy (wfn)     =    9.168209979733913
    SCF energy          (wfn)     =  -76.060374402510760
    Reference energy    (file100) =  -76.060374402510931

    Input parameters:
    -----------------
    Wave function   =     CCSD_T
    Reference wfn   =     UHF
    Brueckner       =     No
    Memory (Mbytes) =     4000.0
    Maxiter         =     50
    R_Convergence   =     1.0e-10
    E_Convergence   =     1.0e-10
    Restart         =     Yes
    DIIS            =     Yes
    AO Basis        =     NONE
    ABCD            =     NEW
    Cache Level     =     2
    Cache Type      =     LRU
    Print Level     =     1
    Num. of threads =     12
    # Amps to Print =     10
    Print MP2 Amps? =     No
    Analyze T2 Amps =     No
    Print Pair Ener =     No
    Local CC        =     No
    SCS-MP2         =     False
    SCSN-MP2        =     False
    SCS-CCSD        =     False

MP2 correlation energy -0.2686146917213343
                Solving CC Amplitude Equations
                ------------------------------
  Iter             Energy              RMS        T1Diag      D1Diag    New D1Diag    D2Diag
  ----     ---------------------    ---------   ----------  ----------  ----------   --------
     0        -0.268614691721334    0.000e+00    0.000000    0.000000    0.000000    0.000000
     1        -0.267132259396006    4.760e-02    0.012082    0.000000    0.000000    0.000000
     2        -0.272195611445562    1.310e-02    0.011859    0.000000    0.000000    0.000000
     3        -0.273410961494258    6.156e-03    0.013708    0.000000    0.000000    0.000000
     4        -0.273306551700465    1.238e-03    0.014030    0.000000    0.000000    0.000000
     5        -0.273290227677920    4.561e-04    0.014162    0.000000    0.000000    0.000000
     6        -0.273291100193122    1.136e-04    0.014191    0.000000    0.000000    0.000000
     7        -0.273289887832132    3.837e-05    0.014197    0.000000    0.000000    0.000000
     8        -0.273289927421615    1.048e-05    0.014199    0.000000    0.000000    0.000000
     9        -0.273289973806550    3.211e-06    0.014200    0.000000    0.000000    0.000000
    10        -0.273289854713505    1.294e-06    0.014200    0.000000    0.000000    0.000000
    11        -0.273289871858521    4.450e-07    0.014200    0.000000    0.000000    0.000000
    12        -0.273289866929767    1.669e-07    0.014200    0.000000    0.000000    0.000000
    13        -0.273289868663414    4.935e-08    0.014200    0.000000    0.000000    0.000000
    14        -0.273289869842037    1.312e-08    0.014200    0.000000    0.000000    0.000000
    15        -0.273289869890946    4.002e-09    0.014200    0.000000    0.000000    0.000000
    16        -0.273289869892060    1.224e-09    0.014200    0.000000    0.000000    0.000000
    17        -0.273289869900477    4.203e-10    0.014200    0.000000    0.000000    0.000000
    18        -0.273289869897431    1.090e-10    0.014200    0.000000    0.000000    0.000000
    19        -0.273289869897051    3.275e-11    0.014200    0.000000    0.000000    0.000000

    Iterations converged.

    Largest TIA Amplitudes:
              2  44        -0.0150775161
              2  45        -0.0130206500
              1   1         0.0085014630
              1   4        -0.0077904682
              3  73         0.0054233768
              2  54         0.0042750069
              3  69         0.0037837719
              2  47        -0.0036732536
              3  80         0.0036045709
              1  23         0.0033895598

    Largest Tia Amplitudes:
              2  44        -0.0150775161
              2  45        -0.0130206500
              1   1         0.0085014630
              1   4        -0.0077904682
              3  73         0.0054233768
              2  54         0.0042750069
              3  69         0.0037837719
              2  47        -0.0036732536
              3  80         0.0036045709
              1  23         0.0033895598

    Largest TIJAB Amplitudes:
      2   1  46   7        -0.0095734305
      3   1  66   6        -0.0093924726

      * MP2 total energy                      =  -76.328989094232270
      * CCSD total energy                     =  -76.333664272407987
      * CCSD(T) total energy                     =  -76.342320854232796
*** Psi4 exiting successfully. Buy a developer a beer!
