                               Psi4 1.3.2 release

  ==> Input File <==

--------------------------------------------------------------------------
memory 4 GB

molecule  {
0 3
O    0.000000000000    0.000000000000   -1.588748526308
H    0.000000000000   -0.752993714200   -0.991521930126
H   -0.000000000000    0.752993714200   -0.991521930126
O    0.000000000000    0.000000000000    1.713698317533
}
set {
basis aug-cc-pvtz
reference uhf
e_convergence 10
scf_type pk
freeze_core true
}

set ccenergy {
e_convergence 10
r_convergence 10
}

e = energy('ccsd(t)')

print_out('Stephenergy {}'.format(e))

--------------------------------------------------------------------------

    Molecular point group: c2v

    Geometry (in Angstrom), charge = 0, multiplicity = 3:

       Center              X                  Y                   Z               Mass
    ------------   -----------------  -----------------  -----------------  -----------------
         O           -0.000000000000     0.000000000000    -1.588748526308    15.994914619570
         H            0.000000000000    -0.752993714200    -0.991521930126     1.007825032230
         H           -0.000000000000     0.752993714200    -0.991521930126     1.007825032230
         O           -0.000000000000     0.000000000000     1.713698317533    15.994914619570

  Charge       = 0
  Multiplicity = 3
  Basis Set: AUG-CC-PVTZ
    Blend: AUG-CC-PVTZ

    Orbital Energies [Eh]
    ---------------------

    Alpha Occupied:

       1A1   -20.730038     2A1   -20.562191     3A1    -1.439222
       4A1    -1.346702     1B2    -0.730668     1B1    -0.730148
       2B2    -0.707319     5A1    -0.634369     6A1    -0.579329
       2B1    -0.504770

    Alpha Virtual:

       7A1     0.035700     3B2     0.048566     3B1     0.131731
       8A1     0.133785     9A1     0.149577     4B2     0.158553
       4B1     0.182544     5B2     0.185165    10A1     0.189872
      11A1     0.254967     6B2     0.259842     1A2     0.265927
      12A1     0.274027     5B1     0.321986    13A1     0.372824
       7B2     0.383669    14A1     0.454333     8B2     0.472836
       2A2     0.609684     9B2     0.621292    15A1     0.621630
      16A1     0.625037     6B1     0.643467    17A1     0.717735
       3A2     0.731237    10B2     0.739997     7B1     0.747756
      18A1     0.798689     8B1     0.836243    19A1     0.844314
      11B2     0.851614     9B1     0.916886     4A2     0.937874
      12B2     0.942469    20A1     0.945710    21A1     0.960350
      10B1     0.973164    13B2     0.978424    22A1     1.051429
      14B2     1.056382    11B1     1.134684     5A2     1.188294
      23A1     1.191149    24A1     1.263641    15B2     1.271093
      16B2     1.283329    25A1     1.369602     6A2     1.511127
      12B1     1.591193    26A1     1.669148    27A1     1.830452
      17B2     1.836267    18B2     1.970636    13B1     1.977746
      19B2     1.997011    28A1     2.005289     7A2     2.013787
      14B1     2.029605    29A1     2.039096     8A2     2.047478
      30A1     2.090941    20B2     2.092573    15B1     2.130320
      31A1     2.165457    16B1     2.286853    21B2     2.286882
       9A2     2.333947    32A1     2.366603    33A1     2.404971
      34A1     2.488855    22B2     2.502185    17B1     2.522763
      35A1     2.580116    23B2     2.691160    18B1     2.721161
      36A1     2.825468    10A2     2.890193    24B2     2.911517
      25B2     3.669741    37A1     3.752646    11A2     4.035438
      19B1     4.051707    26B2     4.094782    20B1     4.106794
      38A1     4.173475    27B2     4.279992    21B1     4.281779
      39A1     4.359771    12A2     4.384914    22B1     4.418943
      40A1     4.438312    28B2     4.532875    41A1     4.755093
      29B2     4.857447    13A2     5.151510    30B2     5.168962
      31B2     5.251123    42A1     5.377119    23B1     5.531083
      43A1     5.677281    44A1     6.203350    24B1     6.314219
      32B2     6.315519    14A2     6.374175    45A1     6.381745
      25B1     6.406833    33B2     6.466794    46A1     6.493608
      34B2     6.531945    26B1     6.748442    15A2     6.819978
      47A1     6.821664    48A1     6.932791    27B1     6.933275
      35B2     6.966142    49A1     7.036973    28B1     7.137908
      29B1     7.262889    16A2     7.320619    36B2     7.353234
      17A2     7.359196    50A1     7.365319    51A1     7.555510
      52A1     7.898825    37B2     7.941926    53A1     8.597806
      38B2     8.818368    54A1    15.758992

    Beta Occupied:

       1A1   -20.651493     2A1   -20.562241     3A1    -1.346946
       4A1    -1.096994     1B2    -0.707535     5A1    -0.585461
       6A1    -0.538821     1B1    -0.504748

    Beta Virtual:

       2B2     0.034624     7A1     0.036869     2B1     0.049128
       3B2     0.069609     8A1     0.139802     9A1     0.152067
       3B1     0.160659     4B2     0.180360    10A1     0.190217
       5B2     0.223701     4B1     0.225679    11A1     0.263978
       6B2     0.264083     1A2     0.266326    12A1     0.276007
       5B1     0.322906    13A1     0.376267     7B2     0.389770
      14A1     0.455650     8B2     0.473313     9B2     0.623394
      15A1     0.627033     2A2     0.641761    16A1     0.653958
       6B1     0.654910    17A1     0.718960     3A2     0.732568
       7B1     0.750519    10B2     0.751895    18A1     0.811207
      19A1     0.852336     8B1     0.911345     9B1     0.933857
       4A2     0.939710    11B2     0.941174    12B2     0.947709
      20A1     0.951578    21A1     0.961536    13B2     1.018045
      10B1     1.029707    22A1     1.052238    14B2     1.060302
      11B1     1.142253     5A2     1.189127    23A1     1.195225
      15B2     1.271959    24A1     1.294810    16B2     1.300022
      25A1     1.411861     6A2     1.511304    12B1     1.591375
      26A1     1.684502    27A1     1.832093    17B2     1.837545
      18B2     1.981720    13B1     2.015665    19B2     2.024533
      28A1     2.030479     7A2     2.049791    14B1     2.051860
      29A1     2.101819    20B2     2.141438    30A1     2.172408
       8A2     2.183517    15B1     2.195407    31A1     2.207684
      16B1     2.293026    21B2     2.327062     9A2     2.337684
      32A1     2.380352    33A1     2.420354    34A1     2.492328
      22B2     2.508146    17B1     2.527614    35A1     2.582431
      23B2     2.691414    18B1     2.721283    36A1     2.825998
      10A2     2.890231    24B2     2.913489    25B2     3.669848
      37A1     3.752749    11A2     4.035550    19B1     4.104862
      38A1     4.186455    20B1     4.225437    26B2     4.249186
      21B1     4.281911    27B2     4.294812    39A1     4.373194
      12A2     4.384974    22B1     4.419292    40A1     4.459422
      28B2     4.533395    41A1     4.755451    29B2     4.857670
      13A2     5.151538    30B2     5.168972    31B2     5.251177
      42A1     5.377598    23B1     5.531087    43A1     5.677621
      44A1     6.206264    24B1     6.423017    32B2     6.424119
      14A2     6.450768    45A1     6.455893    25B1     6.461625
      33B2     6.503389    46A1     6.541547    34B2     6.552020
      26B1     6.755582    47A1     6.934126    15A2     7.008842
      48A1     7.011438    27B1     7.039689    35B2     7.075109
      49A1     7.115985    28B1     7.138621    29B1     7.262856
      16A2     7.320670    36B2     7.354863    17A2     7.359278
      50A1     7.366444    51A1     7.556612    52A1     7.899046
      37B2     7.941908    53A1     8.681591    38B2     8.818286
      54A1    15.758989

    Final Occupation by Irrep:
             A1    A2    B1    B2
    DOCC [     6,    0,    1,    1 ]
    SOCC [     0,    0,    1,    1 ]

  @UHF Final Energy:  -150.87337358220864

   => Energetics <=

    Nuclear Repulsion Energy =             22.4314848852514217
    One-Electron Energy =                -252.6507217144291531
    Two-Electron Energy =                  79.3458632469690883
    Total Energy =                       -150.8733735822086430

  UHF NO Occupations:
  HONO-2 :    6 A1 1.9970765
  HONO-1 :    2 B2 1.0000000
  HONO-0 :    2 B1 1.0000000
  LUNO+0 :    7 A1 0.0029235
  LUNO+1 :    8 A1 0.0016678
  LUNO+2 :    9 A1 0.0000024
  LUNO+3 :   10 A1 0.0000007

Computation Completed

Properties will be evaluated at   0.000000,   0.000000,   0.000000 [a0]

Properties computed using the SCF density matrix

  Nuclear Dipole Moment: [e a0]
     X:    -0.0000      Y:     0.0000      Z:    -1.8584

  Electronic Dipole Moment: [e a0]
     X:     0.0000      Y:     0.0000      Z:     2.6976

  Dipole Moment: [e a0]
     X:    -0.0000      Y:     0.0000      Z:     0.8392     Total:     0.8392

  Dipole Moment: [D]
     X:    -0.0000      Y:     0.0000      Z:     2.1330     Total:     2.1330

*** tstop() called on c4-4.compute.lan at Wed Mar 10 09:36:57 2021
Module time:
	user time   =      47.13 seconds =       0.79 minutes
	system time =       0.84 seconds =       0.01 minutes
	total time  =          4 seconds =       0.07 minutes
Total time:
	user time   =      47.13 seconds =       0.79 minutes
	system time =       0.84 seconds =       0.01 minutes
	total time  =          4 seconds =       0.07 minutes
 MINTS: Wrapper to libmints.
   by Justin Turney

   Calculation information:
      Number of threads:                12
      Number of atoms:                   4
      Number of AO shells:              46
      Number of SO shells:              37
      Number of primitives:             82
      Number of atomic orbitals:       160
      Number of basis functions:       138

      Number of irreps:                  4
      Integral cutoff                 0.00e+00
      Number of functions per irrep: [  54   17   29   38 ]

 OEINTS: Overlap, kinetic, potential, dipole, and quadrupole integrals
         stored in file 35.

      Computing two-electron integrals...done
      Computed 11530119 non-zero two-electron integrals.
        Stored in file 33.

*** tstart() called on c4-4.compute.lan
*** at Wed Mar 10 09:37:00 2021

	Wfn Parameters:
	--------------------
	Wavefunction         = CCSD_T
	Number of irreps     = 4
	Number of MOs        = 138
	Number of active MOs = 136
	AO-Basis             = NONE
	Semicanonical        = false
	Reference            = UHF
	Print Level          = 1

	IRREP	# MOs	# FZDC	# DOCC	# SOCC	# VIRT	# FZVR
	-----	-----	------	------	------	------	------
	 A1	   54	    2	    4	    0	    48	    0
	 A2	   17	    0	    0	    0	    17	    0
	 B1	   29	    0	    1	    1	    27	    0
	 B2	   38	    0	    1	    1	    36	    0
	Transforming integrals...
	IWL integrals will be deleted.
	(OO|OO)...
	Presorting SO-basis two-electron integrals.
	Sorting File: SO Ints (nn|nn) nbuckets = 1
	Transforming the one-electron integrals and constructing Fock matrices
	Starting AA/AB first half-transformation.
	Sorting AA/AB half-transformed integrals.
	Starting BB first half-transformation.
	Sorting BB half-transformed integrals.
	First half integral transformation complete.
	Starting AA second half-transformation.
	Starting AB second half-transformation.
	Starting BB second half-transformation.
	Two-electron integral transformation complete.
	(OO|OV)...
	Starting AA second half-transformation.
	Starting AB second half-transformation.
	Starting BB second half-transformation.
	Two-electron integral transformation complete.
	(OO|VV)...
	Starting AA second half-transformation.
	Starting AB second half-transformation.
	Starting BB second half-transformation.
	Two-electron integral transformation complete.
	(OV|OO)...
	Starting AA/AB first half-transformation.
	Sorting AA/AB half-transformed integrals.
	Starting BB first half-transformation.
	Sorting BB half-transformed integrals.
	First half integral transformation complete.
	Starting AA second half-transformation.
	Starting AB second half-transformation.
	Starting BB second half-transformation.
	Two-electron integral transformation complete.
	(OV|OV)...
	Starting AA second half-transformation.
	Starting AB second half-transformation.
	Starting BB second half-transformation.
	Two-electron integral transformation complete.
	(OV|VV)...
	Starting AA second half-transformation.
	Starting AB second half-transformation.
	Starting BB second half-transformation.
	Two-electron integral transformation complete.
	(VV|OO)...
	Starting AA/AB first half-transformation.
	Sorting AA/AB half-transformed integrals.
	Starting BB first half-transformation.
	Sorting BB half-transformed integrals.
	First half integral transformation complete.
	Starting AA second half-transformation.
	Starting AB second half-transformation.
	Starting BB second half-transformation.
	Two-electron integral transformation complete.
	(VV|OV)...
	Starting AA second half-transformation.
	Starting AB second half-transformation.
	Starting BB second half-transformation.
	Two-electron integral transformation complete.
	(VV|VV)...
	Starting AA second half-transformation.
	Starting AB second half-transformation.
	Starting BB second half-transformation.
	Two-electron integral transformation complete.
	Frozen core energy     =   -125.65389443616128

	Size of irrep 0 of <AB|CD> integrals:      5.040 (MW) /     40.320 (MB)
	Size of irrep 1 of <AB|CD> integrals:      3.197 (MW) /     25.576 (MB)
	Size of irrep 2 of <AB|CD> integrals:      3.640 (MW) /     29.124 (MB)
	Size of irrep 3 of <AB|CD> integrals:      4.783 (MW) /     38.264 (MB)
	Total:                                    16.660 (MW) /    133.283 (MB)

	Size of irrep 0 of <ab|cd> integrals:      5.327 (MW) /     42.615 (MB)
	Size of irrep 1 of <ab|cd> integrals:      3.430 (MW) /     27.439 (MB)
	Size of irrep 2 of <ab|cd> integrals:      3.893 (MW) /     31.142 (MB)
	Size of irrep 3 of <ab|cd> integrals:      5.072 (MW) /     40.572 (MB)
	Total:                                    17.721 (MW) /    141.768 (MB)

	Size of irrep 0 of <Ab|Cd> integrals:     21.912 (MW) /    175.294 (MB)
	Size of irrep 1 of <Ab|Cd> integrals:     13.242 (MW) /    105.939 (MB)
	Size of irrep 2 of <Ab|Cd> integrals:     15.062 (MW) /    120.497 (MB)
	Size of irrep 3 of <Ab|Cd> integrals:     19.705 (MW) /    157.638 (MB)
	Total:                                    69.921 (MW) /    559.368 (MB)

	Size of irrep 0 of <IA|BC> integrals:      1.469 (MW) /     11.748 (MB)
	Size of irrep 1 of <IA|BC> integrals:      0.694 (MW) /      5.550 (MB)
	Size of irrep 2 of <IA|BC> integrals:      0.908 (MW) /      7.266 (MB)
	Size of irrep 3 of <IA|BC> integrals:      1.198 (MW) /      9.588 (MB)
	Total:                                     4.269 (MW) /     34.152 (MB)

	Size of irrep 0 of <ia|bc> integrals:      1.220 (MW) /      9.758 (MB)
	Size of irrep 1 of <ia|bc> integrals:      0.493 (MW) /      3.941 (MB)
	Size of irrep 2 of <ia|bc> integrals:      0.698 (MW) /      5.588 (MB)
	Size of irrep 3 of <ia|bc> integrals:      0.959 (MW) /      7.675 (MB)
	Total:                                     3.370 (MW) /     26.961 (MB)

	Size of irrep 0 of <Ia|Bc> integrals:      1.507 (MW) /     12.058 (MB)
	Size of irrep 1 of <Ia|Bc> integrals:      0.721 (MW) /      5.764 (MB)
	Size of irrep 2 of <Ia|Bc> integrals:      0.939 (MW) /      7.514 (MB)
	Size of irrep 3 of <Ia|Bc> integrals:      1.234 (MW) /      9.872 (MB)
	Total:                                     4.401 (MW) /     35.208 (MB)

	Size of irrep 0 of <iA|bC> integrals:      1.194 (MW) /      9.549 (MB)
	Size of irrep 1 of <iA|bC> integrals:      0.477 (MW) /      3.814 (MB)
	Size of irrep 2 of <iA|bC> integrals:      0.671 (MW) /      5.371 (MB)
	Size of irrep 3 of <iA|bC> integrals:      0.928 (MW) /      7.422 (MB)
	Total:                                     3.270 (MW) /     26.156 (MB)

	Size of irrep 0 of tIjAb amplitudes:       0.094 (MW) /      0.749 (MB)
	Size of irrep 1 of tIjAb amplitudes:       0.015 (MW) /      0.116 (MB)
	Size of irrep 2 of tIjAb amplitudes:       0.047 (MW) /      0.373 (MB)
	Size of irrep 3 of tIjAb amplitudes:       0.053 (MW) /      0.426 (MB)
	Total:                                     0.208 (MW) /      1.664 (MB)

	Nuclear Rep. energy          =     22.43148488525142
	SCF energy                   =   -150.87337358220864
	One-electron energy          =    -83.84889498197848
	Two-electron (AA) energy     =     10.04413956078886
	Two-electron (BB) energy     =      5.34417001174532
	Two-electron (AB) energy     =     20.80962137814412
	Two-electron energy          =     36.19793095067830
	Reference energy             =   -150.87337358221004

*** tstop() called on c4-4.compute.lan at Wed Mar 10 09:37:19 2021
Module time:
	user time   =      51.48 seconds =       0.86 minutes
	system time =       9.88 seconds =       0.16 minutes
	total time  =         19 seconds =       0.32 minutes
Total time:
	user time   =     103.99 seconds =       1.73 minutes
	system time =      11.08 seconds =       0.18 minutes
	total time  =         26 seconds =       0.43 minutes
            **************************
            *                        *
            *        CCENERGY        *
            *                        *
            **************************

    Nuclear Rep. energy (wfn)     =   22.431484885251422
    SCF energy          (wfn)     = -150.873373582208643
    Reference energy    (file100) = -150.873373582210036

    Input parameters:
    -----------------
    Wave function   =     CCSD_T
    Reference wfn   =     UHF
    Brueckner       =     No
    Memory (Mbytes) =     4000.0
    Maxiter         =     50
    R_Convergence   =     1.0e-10
    E_Convergence   =     1.0e-10
    Restart         =     Yes
    DIIS            =     Yes
    AO Basis        =     NONE
    ABCD            =     NEW
    Cache Level     =     2
    Cache Type      =     LRU
    Print Level     =     1
    Num. of threads =     12
    # Amps to Print =     10
    Print MP2 Amps? =     No
    Analyze T2 Amps =     No
    Print Pair Ener =     No
    Local CC        =     No
    SCS-MP2         =     False
    SCSN-MP2        =     False
    SCS-CCSD        =     False

MP2 correlation energy -0.4158553152791789
                Solving CC Amplitude Equations
                ------------------------------
  Iter             Energy              RMS        T1Diag      D1Diag    New D1Diag    D2Diag
  ----     ---------------------    ---------   ----------  ----------  ----------   --------
     0        -0.415855315279179    0.000e+00    0.000000    0.000000    0.000000    0.000000
     1        -0.426727513384497    5.640e-02    0.010377    0.000000    0.000000    0.000000
     2        -0.434822875203642    1.678e-02    0.010891    0.000000    0.000000    0.000000
     3        -0.436915599261169    8.429e-03    0.012717    0.000000    0.000000    0.000000
     4        -0.436791478279732    2.492e-03    0.013067    0.000000    0.000000    0.000000
     5        -0.436778094623368    1.275e-03    0.013214    0.000000    0.000000    0.000000
     6        -0.436803857238935    5.008e-04    0.013231    0.000000    0.000000    0.000000
     7        -0.436808308909407    2.380e-04    0.013222    0.000000    0.000000    0.000000
     8        -0.436808975234534    7.026e-05    0.013217    0.000000    0.000000    0.000000
     9        -0.436810234006356    3.175e-05    0.013217    0.000000    0.000000    0.000000
    10        -0.436808972080373    1.324e-05    0.013217    0.000000    0.000000    0.000000
    11        -0.436809075793240    7.307e-06    0.013217    0.000000    0.000000    0.000000
    12        -0.436809032251734    3.655e-06    0.013217    0.000000    0.000000    0.000000
    13        -0.436809039433914    1.792e-06    0.013217    0.000000    0.000000    0.000000
    14        -0.436809079890894    7.462e-07    0.013217    0.000000    0.000000    0.000000
    15        -0.436809080132013    1.845e-07    0.013217    0.000000    0.000000    0.000000
    16        -0.436809080229015    1.101e-07    0.013217    0.000000    0.000000    0.000000
    17        -0.436809081147255    3.123e-08    0.013217    0.000000    0.000000    0.000000
    18        -0.436809080730078    1.375e-08    0.013217    0.000000    0.000000    0.000000

      * MP2 total energy                      = -151.289228897489210
      * CCSD total energy                     = -151.310182662752823
      * CCSD(T) total energy                     = -151.322423041544397
*** Psi4 exiting successfully. Buy a developer a beer!
