                               Psi4 1.3.2 release

  ==> Input File <==

--------------------------------------------------------------------------
memory 4 GB

molecule  {
0 3
O   -1.643979285178   -0.028695576268    0.000000000000
H   -0.693070115975   -0.028691629369    0.000000000000
H   -1.893074137657    0.939303385075    0.000000000000
O    1.806929884025   -0.028681242795    0.000000000000
}
set {
basis aug-cc-pvtz
reference uhf
e_convergence 10
scf_type pk
freeze_core true
}

set ccenergy {
e_convergence 10
r_convergence 10
}

e = energy('ccsd(t)')

print_out('Stephenergy {}'.format(e))

--------------------------------------------------------------------------

    Molecular point group: cs

    Geometry (in Angstrom), charge = 0, multiplicity = 3:

       Center              X                  Y                   Z               Mass
    ------------   -----------------  -----------------  -----------------  -----------------
         O           -1.643979285178    -0.028695576268     0.000000000000    15.994914619570
         H           -0.693070115975    -0.028691629369     0.000000000000     1.007825032230
         H           -1.893074137657     0.939303385075     0.000000000000     1.007825032230
         O            1.806929884025    -0.028681242795     0.000000000000    15.994914619570

  Charge       = 0
  Multiplicity = 3
  Basis Set: AUG-CC-PVTZ
    Blend: AUG-CC-PVTZ

    Orbital Energies [Eh]
    ---------------------

    Alpha Occupied:

       1Ap   -20.730024     2Ap   -20.563954     3Ap    -1.438819
       4Ap    -1.339277     5Ap    -0.729759     1App   -0.729680
       6Ap    -0.703503     7Ap    -0.631762     8Ap    -0.575349
       2App   -0.503304

    Alpha Virtual:

       9Ap     0.033719    10Ap     0.053436    11Ap     0.129030
       3App    0.132802    12Ap     0.147001    13Ap     0.159672
      14Ap     0.181736     4App    0.183218    15Ap     0.206835
      16Ap     0.235151    17Ap     0.266615     5App    0.279820
      18Ap     0.288598     6App    0.318824    19Ap     0.363681
      20Ap     0.385451    21Ap     0.448033    22Ap     0.554531
       7App    0.604047    23Ap     0.608444    24Ap     0.641873
      25Ap     0.665751     8App    0.685015    26Ap     0.711734
       9App    0.734107    10App    0.746633    27Ap     0.753715
      28Ap     0.788606    11App    0.825044    29Ap     0.834043
      30Ap     0.853713    12App    0.874242    31Ap     0.913919
      32Ap     0.921375    13App    0.939950    33Ap     0.947857
      14App    0.967418    34Ap     0.975769    35Ap     1.025901
      36Ap     1.082456    15App    1.157829    37Ap     1.167168
      16App    1.209243    38Ap     1.223222    39Ap     1.254887
      40Ap     1.283416    17App    1.512576    41Ap     1.531675
      18App    1.585953    42Ap     1.598787    43Ap     1.793110
      44Ap     1.815941    45Ap     1.970002    19App    1.979298
      46Ap     1.979364    20App    2.009458    47Ap     2.012400
      21App    2.033799    48Ap     2.035919    22App    2.086762
      49Ap     2.115933    50Ap     2.133404    23App    2.159874
      51Ap     2.227404    24App    2.278524    52Ap     2.331043
      53Ap     2.369759    25App    2.423906    54Ap     2.427492
      26App    2.456526    55Ap     2.482725    56Ap     2.548386
      57Ap     2.682009    27App    2.723712    58Ap     2.727422
      59Ap     2.843617    60Ap     2.915337    28App    2.919542
      61Ap     3.637268    62Ap     3.810662    29App    4.014275
      30App    4.051767    63Ap     4.066781    31App    4.132110
      64Ap     4.176515    65Ap     4.246239    32App    4.291767
      66Ap     4.359930    33App    4.381262    34App    4.417345
      67Ap     4.425971    68Ap     4.546758    69Ap     4.728232
      70Ap     4.890296    35App    5.107196    71Ap     5.122490
      72Ap     5.271947    73Ap     5.355137    36App    5.496226
      74Ap     5.670858    75Ap     6.172507    37App    6.314793
      76Ap     6.314816    38App    6.366589    77Ap     6.367805
      39App    6.462578    78Ap     6.475867    79Ap     6.540611
      80Ap     6.594005    40App    6.713205    81Ap     6.813677
      41App    6.818763    82Ap     6.887230    42App    6.924667
      83Ap     6.948915    84Ap     7.038761    43App    7.108711
      44App    7.241927    85Ap     7.289091    45App    7.322717
      86Ap     7.351857    46App    7.409119    87Ap     7.618797
      88Ap     7.886551    89Ap     7.945997    90Ap     8.730120
      91Ap     8.947195    92Ap    16.026148

    Beta Occupied:

       1Ap   -20.651289     2Ap   -20.564020     3Ap    -1.339544
       4Ap    -1.096278     5Ap    -0.703268     6Ap    -0.577736
       7Ap    -0.539845     1App   -0.503335

    Beta Virtual:

       8Ap     0.033663     9Ap     0.047773     2App    0.050586
      10Ap     0.058906    11Ap     0.142839    12Ap     0.151688
       3App    0.160344    13Ap     0.178312    14Ap     0.207054
      15Ap     0.217703     4App    0.226946    16Ap     0.243786
      17Ap     0.269443     5App    0.279987    18Ap     0.291363
       6App    0.320216    19Ap     0.367009    20Ap     0.392114
      21Ap     0.448522    22Ap     0.556597     7App    0.636975
      23Ap     0.638075    24Ap     0.645929    25Ap     0.669005
       8App    0.699040    26Ap     0.712378     9App    0.734897
      10App    0.747608    27Ap     0.767012    28Ap     0.800291
      29Ap     0.841108    11App    0.858245    30Ap     0.911619
      31Ap     0.923732    12App    0.925731    32Ap     0.944467
      13App    0.946497    33Ap     0.967648    34Ap     1.006147
      14App    1.021554    35Ap     1.029177    36Ap     1.090627
      15App    1.161820    37Ap     1.170258    16App    1.217145
      38Ap     1.256737    39Ap     1.271495    40Ap     1.288451
      17App    1.513091    41Ap     1.549736    18App    1.587138
      42Ap     1.622334    43Ap     1.795912    44Ap     1.817698
      45Ap     1.973091    19App    2.017467    46Ap     2.017513
      20App    2.037748    47Ap     2.041025    21App    2.120478
      48Ap     2.157862    49Ap     2.166133    22App    2.179426
      50Ap     2.180368    23App    2.212778    51Ap     2.269993
      24App    2.279876    52Ap     2.344827    53Ap     2.384445
      25App    2.427168    54Ap     2.429338    26App    2.464148
      55Ap     2.489659    56Ap     2.553799    57Ap     2.688572
      27App    2.724188    58Ap     2.727904    59Ap     2.847857
      60Ap     2.917180    28App    2.920135    61Ap     3.637434
      62Ap     3.811701    29App    4.014524    30App    4.115694
      63Ap     4.165217    64Ap     4.238283    31App    4.238397
      65Ap     4.256472    32App    4.291877    66Ap     4.380325
      33App    4.381463    34App    4.419048    67Ap     4.452717
      68Ap     4.547764    69Ap     4.729125    70Ap     4.890993
      35App    5.107198    71Ap     5.122743    72Ap     5.272134
      73Ap     5.356129    36App    5.496230    74Ap     5.671212
      75Ap     6.173315    37App    6.423745    76Ap     6.423762
      38App    6.442711    77Ap     6.444181    78Ap     6.518073
      39App    6.518491    79Ap     6.554425    80Ap     6.640766
      40App    6.715603    81Ap     6.885266    41App    7.006180
      82Ap     7.006652    42App    7.034350    83Ap     7.058505
      43App    7.110328    84Ap     7.122050    44App    7.242109
      85Ap     7.289364    45App    7.323394    86Ap     7.352062
      46App    7.409645    87Ap     7.621300    88Ap     7.886691
      89Ap     7.946675    90Ap     8.730665    91Ap     9.024276
      92Ap    16.026495

    Final Occupation by Irrep:
             Ap   App
    DOCC [     7,    1 ]
    SOCC [     1,    1 ]

  @UHF Final Energy:  -150.87218234411003

   => Energetics <=

    Nuclear Repulsion Energy =             21.6448985380104624
    One-Electron Energy =                -251.1134183949744454
    Two-Electron Energy =                  78.5963375128539496
    Total Energy =                       -150.8721823441100298

  UHF NO Occupations:
  HONO-2 :    7 Ap 1.9970426
  HONO-1 :    8 Ap 1.0000000
  HONO-0 :    2App 1.0000000
  LUNO+0 :    9 Ap 0.0029574
  LUNO+1 :   10 Ap 0.0017368
  LUNO+2 :   11 Ap 0.0000024
  LUNO+3 :   12 Ap 0.0000005

Computation Completed

Properties will be evaluated at   0.000000,   0.000000,   0.000000 [a0]

Properties computed using the SCF density matrix

  Nuclear Dipole Moment: [e a0]
     X:    -2.4236      Y:     0.8534      Z:     0.0000

  Electronic Dipole Moment: [e a0]
     X:     2.9573      Y:    -0.2290      Z:     0.0000

  Dipole Moment: [e a0]
     X:     0.5336      Y:     0.6244      Z:     0.0000     Total:     0.8213

  Dipole Moment: [D]
     X:     1.3564      Y:     1.5869      Z:     0.0000     Total:     2.0876

*** tstop() called on c1-11.compute.lan at Tue Mar  9 14:24:05 2021
Module time:
	user time   =      62.47 seconds =       1.04 minutes
	system time =       3.28 seconds =       0.05 minutes
	total time  =          6 seconds =       0.10 minutes
Total time:
	user time   =      62.47 seconds =       1.04 minutes
	system time =       3.28 seconds =       0.05 minutes
	total time  =          6 seconds =       0.10 minutes
 MINTS: Wrapper to libmints.
   by Justin Turney

   Calculation information:
      Number of threads:                12
      Number of atoms:                   4
      Number of AO shells:              46
      Number of SO shells:              46
      Number of primitives:             82
      Number of atomic orbitals:       160
      Number of basis functions:       138

      Number of irreps:                  2
      Integral cutoff                 0.00e+00
      Number of functions per irrep: [  92   46 ]

 OEINTS: Overlap, kinetic, potential, dipole, and quadrupole integrals
         stored in file 35.

      Computing two-electron integrals...done
      Computed 22945740 non-zero two-electron integrals.
        Stored in file 33.

*** tstart() called on c1-11.compute.lan
*** at Tue Mar  9 14:24:08 2021

	Wfn Parameters:
	--------------------
	Wavefunction         = CCSD_T
	Number of irreps     = 2
	Number of MOs        = 138
	Number of active MOs = 136
	AO-Basis             = NONE
	Semicanonical        = false
	Reference            = UHF
	Print Level          = 1

	IRREP	# MOs	# FZDC	# DOCC	# SOCC	# VIRT	# FZVR
	-----	-----	------	------	------	------	------
	 Ap	   92	    2	    5	    1	    84	    0
	 App	   46	    0	    1	    1	    44	    0
	Transforming integrals...
	IWL integrals will be deleted.
	(OO|OO)...
	Presorting SO-basis two-electron integrals.
	Sorting File: SO Ints (nn|nn) nbuckets = 1
	Transforming the one-electron integrals and constructing Fock matrices
	Starting AA/AB first half-transformation.
	Sorting AA/AB half-transformed integrals.
	Starting BB first half-transformation.
	Sorting BB half-transformed integrals.
	First half integral transformation complete.
	Starting AA second half-transformation.
	Starting AB second half-transformation.
	Starting BB second half-transformation.
	Two-electron integral transformation complete.
	(OO|OV)...
	Starting AA second half-transformation.
	Starting AB second half-transformation.
	Starting BB second half-transformation.
	Two-electron integral transformation complete.
	(OO|VV)...
	Starting AA second half-transformation.
	Starting AB second half-transformation.
	Starting BB second half-transformation.
	Two-electron integral transformation complete.
	(OV|OO)...
	Starting AA/AB first half-transformation.
	Sorting AA/AB half-transformed integrals.
	Starting BB first half-transformation.
	Sorting BB half-transformed integrals.
	First half integral transformation complete.
	Starting AA second half-transformation.
	Starting AB second half-transformation.
	Starting BB second half-transformation.
	Two-electron integral transformation complete.
	(OV|OV)...
	Starting AA second half-transformation.
	Starting AB second half-transformation.
	Starting BB second half-transformation.
	Two-electron integral transformation complete.
	(OV|VV)...
	Starting AA second half-transformation.
	Starting AB second half-transformation.
	Starting BB second half-transformation.
	Two-electron integral transformation complete.
	(VV|OO)...
	Starting AA/AB first half-transformation.
	Sorting AA/AB half-transformed integrals.
	Starting BB first half-transformation.
	Sorting BB half-transformed integrals.
	First half integral transformation complete.
	Starting AA second half-transformation.
	Starting AB second half-transformation.
	Starting BB second half-transformation.
	Two-electron integral transformation complete.
	(VV|OV)...
	Starting AA second half-transformation.
	Starting AB second half-transformation.
	Starting BB second half-transformation.
	Two-electron integral transformation complete.
	(VV|VV)...
	Starting AA second half-transformation.
	Starting AB second half-transformation.
	Starting BB second half-transformation.
	Two-electron integral transformation complete.
	Frozen core energy     =   -125.37654191797007

	Size of irrep 0 of <AB|CD> integrals:     19.643 (MW) /    157.141 (MB)
	Size of irrep 1 of <AB|CD> integrals:     13.660 (MW) /    109.283 (MB)
	Total:                                    33.303 (MW) /    266.424 (MB)

	Size of irrep 0 of <ab|cd> integrals:     20.794 (MW) /    166.349 (MB)
	Size of irrep 1 of <ab|cd> integrals:     14.631 (MW) /    117.045 (MB)
	Total:                                    35.424 (MW) /    283.394 (MB)

	Size of irrep 0 of <Ab|Cd> integrals:     83.174 (MW) /    665.395 (MB)
	Size of irrep 1 of <Ab|Cd> integrals:     56.550 (MW) /    452.403 (MB)
	Total:                                   139.725 (MW) /   1117.798 (MB)

	Size of irrep 0 of <IA|BC> integrals:      5.323 (MW) /     42.586 (MB)
	Size of irrep 1 of <IA|BC> integrals:      3.193 (MW) /     25.547 (MB)
	Total:                                     8.517 (MW) /     68.133 (MB)

	Size of irrep 0 of <ia|bc> integrals:      4.348 (MW) /     34.780 (MB)
	Size of irrep 1 of <ia|bc> integrals:      2.372 (MW) /     18.972 (MB)
	Total:                                     6.719 (MW) /     53.752 (MB)

	Size of irrep 0 of <Ia|Bc> integrals:      5.472 (MW) /     43.776 (MB)
	Size of irrep 1 of <Ia|Bc> integrals:      3.309 (MW) /     26.470 (MB)
	Total:                                     8.781 (MW) /     70.246 (MB)

	Size of irrep 0 of <iA|bC> integrals:      4.232 (MW) /     33.853 (MB)
	Size of irrep 1 of <iA|bC> integrals:      2.286 (MW) /     18.289 (MB)
	Total:                                     6.518 (MW) /     52.142 (MB)

	Size of irrep 0 of tIjAb amplitudes:       0.292 (MW) /      2.335 (MB)
	Size of irrep 1 of tIjAb amplitudes:       0.120 (MW) /      0.963 (MB)
	Total:                                     0.412 (MW) /      3.297 (MB)

	Nuclear Rep. energy          =     21.64489853801046
	SCF energy                   =   -150.87218234411003
	One-electron energy          =    -82.86962388962328
	Two-electron (AA) energy     =      9.89934592519586
	Two-electron (BB) energy     =      5.26345872965780
	Two-electron (AB) energy     =     20.56628027061862
	Two-electron energy          =     35.72908492547228
	Reference energy             =   -150.87218234411063

*** tstop() called on c1-11.compute.lan at Tue Mar  9 14:24:49 2021
Module time:
	user time   =     105.91 seconds =       1.77 minutes
	system time =      26.09 seconds =       0.43 minutes
	total time  =         41 seconds =       0.68 minutes
Total time:
	user time   =     174.51 seconds =       2.91 minutes
	system time =      30.17 seconds =       0.50 minutes
	total time  =         50 seconds =       0.83 minutes
            **************************
            *                        *
            *        CCENERGY        *
            *                        *
            **************************

    Nuclear Rep. energy (wfn)     =   21.644898538010462
    SCF energy          (wfn)     = -150.872182344110030
    Reference energy    (file100) = -150.872182344110627

    Input parameters:
    -----------------
    Wave function   =     CCSD_T
    Reference wfn   =     UHF
    Brueckner       =     No
    Memory (Mbytes) =     4000.0
    Maxiter         =     50
    R_Convergence   =     1.0e-10
    E_Convergence   =     1.0e-10
    Restart         =     Yes
    DIIS            =     Yes
    AO Basis        =     NONE
    ABCD            =     NEW
    Cache Level     =     2
    Cache Type      =     LRU
    Print Level     =     1
    Num. of threads =     12
    # Amps to Print =     10
    Print MP2 Amps? =     No
    Analyze T2 Amps =     No
    Print Pair Ener =     No
    Local CC        =     No
    SCS-MP2         =     False
    SCSN-MP2        =     False
    SCS-CCSD        =     False

MP2 correlation energy -0.4170488715316829
                Solving CC Amplitude Equations
                ------------------------------
  Iter             Energy              RMS        T1Diag      D1Diag    New D1Diag    D2Diag
  ----     ---------------------    ---------   ----------  ----------  ----------   --------
     0        -0.417048871531683    0.000e+00    0.000000    0.000000    0.000000    0.000000
     1        -0.427539370626993    5.748e-02    0.010609    0.000000    0.000000    0.000000
     2        -0.435759518865778    1.719e-02    0.011070    0.000000    0.000000    0.000000
     3        -0.437936455615759    8.644e-03    0.012945    0.000000    0.000000    0.000000
     4        -0.437810524386927    2.542e-03    0.013299    0.000000    0.000000    0.000000
     5        -0.437798693771107    1.281e-03    0.013446    0.000000    0.000000    0.000000
     6        -0.437824456746921    5.068e-04    0.013461    0.000000    0.000000    0.000000
     7        -0.437828451596932    2.275e-04    0.013450    0.000000    0.000000    0.000000
     8        -0.437829320013391    7.700e-05    0.013444    0.000000    0.000000    0.000000
     9        -0.437830562380928    4.532e-05    0.013444    0.000000    0.000000    0.000000
    10        -0.437829366317161    3.681e-05    0.013444    0.000000    0.000000    0.000000
    11        -0.437829476277086    3.538e-05    0.013444    0.000000    0.000000    0.000000
    12        -0.437829340720429    3.480e-05    0.013444    0.000000    0.000000    0.000000
    13        -0.437829252299491    3.437e-05    0.013446    0.000000    0.000000    0.000000
    14        -0.437829671437555    3.345e-05    0.013451    0.000000    0.000000    0.000000
    15        -0.437829690302696    3.104e-05    0.013465    0.000000    0.000000    0.000000
    16        -0.437829686533919    2.577e-05    0.013542    0.000000    0.000000    0.000000
    17        -0.437829693819633    1.508e-05    0.013595    0.000000    0.000000    0.000000
    18        -0.437829625061638    6.527e-06    0.013619    0.000000    0.000000    0.000000
    19        -0.437829769861724    2.935e-06    0.013624    0.000000    0.000000    0.000000
    20        -0.437829849440491    1.376e-06    0.013625    0.000000    0.000000    0.000000
    21        -0.437829854866446    5.824e-07    0.013626    0.000000    0.000000    0.000000
    22        -0.437829855413525    2.323e-07    0.013626    0.000000    0.000000    0.000000
    23        -0.437829856202053    9.961e-08    0.013626    0.000000    0.000000    0.000000
    24        -0.437829856153607    4.236e-08    0.013626    0.000000    0.000000    0.000000
    25        -0.437829856825314    2.246e-08    0.013626    0.000000    0.000000    0.000000
    26        -0.437829857235047    8.149e-09    0.013626    0.000000    0.000000    0.000000
    27        -0.437829857309291    3.389e-09    0.013626    0.000000    0.000000    0.000000
    28        -0.437829857333798    2.455e-09    0.013626    0.000000    0.000000    0.000000
    29        -0.437829857335465    2.216e-09    0.013626    0.000000    0.000000    0.000000
    30        -0.437829857321579    2.055e-09    0.013626    0.000000    0.000000    0.000000
    31        -0.437829857303615    1.903e-09    0.013626    0.000000    0.000000    0.000000
    32        -0.437829857292492    1.727e-09    0.013626    0.000000    0.000000    0.000000
    33        -0.437829857291942    1.395e-09    0.013626    0.000000    0.000000    0.000000
    34        -0.437829857296321    7.998e-10    0.013626    0.000000    0.000000    0.000000
    35        -0.437829857299454    3.575e-10    0.013626    0.000000    0.000000    0.000000
    36        -0.437829857300067    1.378e-10    0.013626    0.000000    0.000000    0.000000

      * MP2 total energy                      = -151.289231215642303
      * CCSD total energy                     = -151.310012201409393
      * CCSD(T) total energy                     = -151.322406965093819
*** Psi4 exiting successfully. Buy a developer a beer!
