                               Psi4 1.3.2 release

  ==> Input File <==

--------------------------------------------------------------------------
memory 4 GB

molecule  {
0 3
O   -1.626052396214   -0.021773618994    0.000000000000
H   -0.663279771014   -0.022990669094    0.000000000000
H   -1.863675534765    0.910407307114    0.000000000000
O    1.785273553255   -0.034141696785    0.000000000000
}
set {
basis aug-cc-pvtz
reference uhf
e_convergence 10
scf_type pk
freeze_core true
}

set ccenergy {
e_convergence 10
r_convergence 10
}

e = energy('ccsd(t)')

print_out('Stephenergy {}'.format(e))

--------------------------------------------------------------------------

    Molecular point group: cs

    Geometry (in Angstrom), charge = 0, multiplicity = 3:

       Center              X                  Y                   Z               Mass
    ------------   -----------------  -----------------  -----------------  -----------------
         O           -1.626052396214    -0.021773618994     0.000000000000    15.994914619570
         H           -0.663279771014    -0.022990669094     0.000000000000     1.007825032230
         H           -1.863675534765     0.910407307114     0.000000000000     1.007825032230
         O            1.785273553255    -0.034141696785     0.000000000000    15.994914619570

  Charge       = 0
  Multiplicity = 3
  Basis Set: AUG-CC-PVTZ
    Blend: AUG-CC-PVTZ

    Orbital Energies [Eh]
    ---------------------

    Alpha Occupied:

       1Ap   -20.731221     2Ap   -20.561259     3Ap    -1.440062
       4Ap    -1.344763     5Ap    -0.730947     1App   -0.730855
       6Ap    -0.709745     7Ap    -0.633259     8Ap    -0.577421
       2App   -0.503808

    Alpha Virtual:

       9Ap     0.034214    10Ap     0.053382    11Ap     0.128555
       3App    0.132332    12Ap     0.147492    13Ap     0.160422
      14Ap     0.182789     4App    0.183444    15Ap     0.207422
      16Ap     0.236422    17Ap     0.268809     5App    0.281170
      18Ap     0.290383     6App    0.319113    19Ap     0.362729
      20Ap     0.387417    21Ap     0.457209    22Ap     0.555595
       7App    0.603025    23Ap     0.607907    24Ap     0.643959
      25Ap     0.666150     8App    0.689207    26Ap     0.712103
       9App    0.733532    10App    0.747193    27Ap     0.758464
      28Ap     0.789666    11App    0.824758    29Ap     0.838758
      30Ap     0.854056    12App    0.876402    31Ap     0.914447
      32Ap     0.929774    13App    0.939021    33Ap     0.949751
      14App    0.974172    34Ap     0.978413    35Ap     1.038862
      36Ap     1.089399    15App    1.164056    37Ap     1.171328
      38Ap     1.215122    16App    1.216087    39Ap     1.265500
      40Ap     1.279947    17App    1.522229    41Ap     1.539762
      18App    1.591635    42Ap     1.610514    43Ap     1.803912
      44Ap     1.813350    19App    1.978375    45Ap     1.978431
      46Ap     2.003825    20App    2.009720    47Ap     2.018809
      21App    2.035378    48Ap     2.041836    22App    2.093245
      49Ap     2.126974    50Ap     2.142469    23App    2.167325
      51Ap     2.245330    24App    2.286815    52Ap     2.326966
      53Ap     2.374233    25App    2.429857    54Ap     2.452687
      26App    2.463761    55Ap     2.487311    56Ap     2.552598
      57Ap     2.657968    27App    2.723961    58Ap     2.727024
      59Ap     2.857597    60Ap     2.915546    28App    2.935905
      61Ap     3.684252    62Ap     3.821292    29App    4.027662
      30App    4.054121    63Ap     4.069209    31App    4.146225
      64Ap     4.188690    65Ap     4.265554    32App    4.297489
      66Ap     4.365021    33App    4.389657    34App    4.429124
      67Ap     4.430768    68Ap     4.562182    69Ap     4.771598
      70Ap     4.935373    35App    5.153162    71Ap     5.173779
      72Ap     5.301030    73Ap     5.368365    36App    5.523582
      74Ap     5.684399    75Ap     6.188516    37App    6.313698
      76Ap     6.313721    38App    6.367037    77Ap     6.368346
      39App    6.471700    78Ap     6.489185    79Ap     6.534397
      80Ap     6.598661    40App    6.717333    81Ap     6.813855
      41App    6.818239    82Ap     6.910436    42App    6.925746
      83Ap     6.953292    84Ap     7.040161    43App    7.141147
      44App    7.270121    85Ap     7.320674    45App    7.321725
      86Ap     7.350426    46App    7.414832    87Ap     7.638715
      88Ap     7.933029    89Ap     7.950180    90Ap     8.805114
      91Ap     9.029145    92Ap    16.330746

    Beta Occupied:

       1Ap   -20.652471     2Ap   -20.561338     3Ap    -1.345077
       4Ap    -1.097519     5Ap    -0.709516     6Ap    -0.580541
       7Ap    -0.540683     1App   -0.503849

    Beta Virtual:

       8Ap     0.034115     9Ap     0.047301     2App    0.049789
      10Ap     0.058567    11Ap     0.143377    12Ap     0.151626
       3App    0.160075    13Ap     0.179617    14Ap     0.207762
      15Ap     0.217612     4App    0.226575    16Ap     0.245314
      17Ap     0.271149     5App    0.281376    18Ap     0.293012
       6App    0.320767    19Ap     0.366084    20Ap     0.394704
      21Ap     0.457701    22Ap     0.557783     7App    0.635838
      23Ap     0.638414    24Ap     0.647024    25Ap     0.669581
       8App    0.703129    26Ap     0.712752     9App    0.734389
      10App    0.748284    27Ap     0.772798    28Ap     0.801148
      29Ap     0.845432    11App    0.860753    30Ap     0.912149
      12App    0.927058    31Ap     0.930533    32Ap     0.946202
      13App    0.948599    33Ap     0.969099    34Ap     1.009293
      14App    1.022954    35Ap     1.040643    36Ap     1.099176
      15App    1.168108    37Ap     1.174396    16App    1.224553
      38Ap     1.257527    39Ap     1.269621    40Ap     1.288846
      17App    1.523016    41Ap     1.551963    18App    1.592669
      42Ap     1.638344    43Ap     1.806979    44Ap     1.815489
      45Ap     2.014713    19App    2.016531    46Ap     2.016693
      20App    2.039681    47Ap     2.047545    21App    2.129816
      48Ap     2.170029    49Ap     2.177426    22App    2.179227
      50Ap     2.181568    23App    2.216949    51Ap     2.283416
      24App    2.288313    52Ap     2.335338    53Ap     2.390236
      25App    2.432810    54Ap     2.454634    26App    2.471785
      55Ap     2.494301    56Ap     2.558430    57Ap     2.665155
      27App    2.724577    58Ap     2.729407    59Ap     2.861397
      60Ap     2.917524    28App    2.936567    61Ap     3.684566
      62Ap     3.822480    29App    4.028168    30App    4.129236
      63Ap     4.178282    64Ap     4.240920    31App    4.241233
      65Ap     4.274479    32App    4.297519    66Ap     4.382270
      33App    4.389909    34App    4.430655    67Ap     4.460906
      68Ap     4.562895    69Ap     4.772802    70Ap     4.936147
      35App    5.153149    71Ap     5.174182    72Ap     5.301230
      73Ap     5.369169    36App    5.523585    74Ap     5.684732
      75Ap     6.189331    37App    6.422655    76Ap     6.422670
      38App    6.443126    77Ap     6.444615    78Ap     6.522708
      39App    6.527494    79Ap     6.556675    80Ap     6.645704
      40App    6.719886    81Ap     6.910625    41App    7.005526
      82Ap     7.006132    42App    7.035083    83Ap     7.061329
      84Ap     7.122935    43App    7.143106    44App    7.270258
      85Ap     7.320831    45App    7.322338    86Ap     7.350645
      46App    7.415375    87Ap     7.640938    88Ap     7.933416
      89Ap     7.950446    90Ap     8.807989    91Ap     9.103870
      92Ap    16.331070

    Final Occupation by Irrep:
             Ap   App
    DOCC [     7,    1 ]
    SOCC [     1,    1 ]

  @UHF Final Energy:  -150.87466513613319

   => Energetics <=

    Nuclear Repulsion Energy =             21.9257307342689174
    One-Electron Energy =                -251.6464584381134273
    Two-Electron Energy =                  78.8460625677113285
    Total Energy =                       -150.8746651361331885

  UHF NO Occupations:
  HONO-2 :    7 Ap 1.9970391
  HONO-1 :    2App 1.0000000
  HONO-0 :    8 Ap 1.0000000
  LUNO+0 :    9 Ap 0.0029609
  LUNO+1 :   10 Ap 0.0017369
  LUNO+2 :   11 Ap 0.0000024
  LUNO+3 :   12 Ap 0.0000007

Computation Completed

Properties will be evaluated at   0.000000,   0.000000,   0.000000 [a0]

Properties computed using the SCF density matrix

  Nuclear Dipole Moment: [e a0]
     X:    -2.3682      Y:     0.8317      Z:     0.0000

  Electronic Dipole Moment: [e a0]
     X:     2.9200      Y:    -0.2218      Z:     0.0000

  Dipole Moment: [e a0]
     X:     0.5518      Y:     0.6099      Z:     0.0000     Total:     0.8224

  Dipole Moment: [D]
     X:     1.4025      Y:     1.5501      Z:     0.0000     Total:     2.0904

*** tstop() called on d3-17.compute.lan at Tue Mar  9 14:35:04 2021
Module time:
	user time   =      52.65 seconds =       0.88 minutes
	system time =       2.15 seconds =       0.04 minutes
	total time  =          5 seconds =       0.08 minutes
Total time:
	user time   =      52.65 seconds =       0.88 minutes
	system time =       2.15 seconds =       0.04 minutes
	total time  =          5 seconds =       0.08 minutes
 MINTS: Wrapper to libmints.
   by Justin Turney

   Calculation information:
      Number of threads:                12
      Number of atoms:                   4
      Number of AO shells:              46
      Number of SO shells:              46
      Number of primitives:             82
      Number of atomic orbitals:       160
      Number of basis functions:       138

      Number of irreps:                  2
      Integral cutoff                 0.00e+00
      Number of functions per irrep: [  92   46 ]

 OEINTS: Overlap, kinetic, potential, dipole, and quadrupole integrals
         stored in file 35.

      Computing two-electron integrals...done
      Computed 22916537 non-zero two-electron integrals.
        Stored in file 33.

*** tstart() called on d3-17.compute.lan
*** at Tue Mar  9 14:35:09 2021

	Wfn Parameters:
	--------------------
	Wavefunction         = CCSD_T
	Number of irreps     = 2
	Number of MOs        = 138
	Number of active MOs = 136
	AO-Basis             = NONE
	Semicanonical        = false
	Reference            = UHF
	Print Level          = 1

	IRREP	# MOs	# FZDC	# DOCC	# SOCC	# VIRT	# FZVR
	-----	-----	------	------	------	------	------
	 Ap	   92	    2	    5	    1	    84	    0
	 App	   46	    0	    1	    1	    44	    0
	Transforming integrals...
	IWL integrals will be deleted.
	(OO|OO)...
	Presorting SO-basis two-electron integrals.
	Sorting File: SO Ints (nn|nn) nbuckets = 1
	Transforming the one-electron integrals and constructing Fock matrices
	Starting AA/AB first half-transformation.
	Sorting AA/AB half-transformed integrals.
	Starting BB first half-transformation.
	Sorting BB half-transformed integrals.
	First half integral transformation complete.
	Starting AA second half-transformation.
	Starting AB second half-transformation.
	Starting BB second half-transformation.
	Two-electron integral transformation complete.
	(OO|OV)...
	Starting AA second half-transformation.
	Starting AB second half-transformation.
	Starting BB second half-transformation.
	Two-electron integral transformation complete.
	(OO|VV)...
	Starting AA second half-transformation.
	Starting AB second half-transformation.
	Starting BB second half-transformation.
	Two-electron integral transformation complete.
	(OV|OO)...
	Starting AA/AB first half-transformation.
	Sorting AA/AB half-transformed integrals.
	Starting BB first half-transformation.
	Sorting BB half-transformed integrals.
	First half integral transformation complete.
	Starting AA second half-transformation.
	Starting AB second half-transformation.
	Starting BB second half-transformation.
	Two-electron integral transformation complete.
	(OV|OV)...
	Starting AA second half-transformation.
	Starting AB second half-transformation.
	Starting BB second half-transformation.
	Two-electron integral transformation complete.
	(OV|VV)...
	Starting AA second half-transformation.
	Starting AB second half-transformation.
	Starting BB second half-transformation.
	Two-electron integral transformation complete.
	(VV|OO)...
	Starting AA/AB first half-transformation.
	Sorting AA/AB half-transformed integrals.
	Starting BB first half-transformation.
	Sorting BB half-transformed integrals.
	First half integral transformation complete.
	Starting AA second half-transformation.
	Starting AB second half-transformation.
	Starting BB second half-transformation.
	Two-electron integral transformation complete.
	(VV|OV)...
	Starting AA second half-transformation.
	Starting AB second half-transformation.
	Starting BB second half-transformation.
	Two-electron integral transformation complete.
	(VV|VV)...
	Starting AA second half-transformation.
	Starting AB second half-transformation.
	Starting BB second half-transformation.
	Two-electron integral transformation complete.
	Frozen core energy     =   -125.46686994891324

	Size of irrep 0 of <AB|CD> integrals:     19.643 (MW) /    157.141 (MB)
	Size of irrep 1 of <AB|CD> integrals:     13.660 (MW) /    109.283 (MB)
	Total:                                    33.303 (MW) /    266.424 (MB)

	Size of irrep 0 of <ab|cd> integrals:     20.794 (MW) /    166.349 (MB)
	Size of irrep 1 of <ab|cd> integrals:     14.631 (MW) /    117.045 (MB)
	Total:                                    35.424 (MW) /    283.394 (MB)

	Size of irrep 0 of <Ab|Cd> integrals:     83.174 (MW) /    665.395 (MB)
	Size of irrep 1 of <Ab|Cd> integrals:     56.550 (MW) /    452.403 (MB)
	Total:                                   139.725 (MW) /   1117.798 (MB)

	Size of irrep 0 of <IA|BC> integrals:      5.323 (MW) /     42.586 (MB)
	Size of irrep 1 of <IA|BC> integrals:      3.193 (MW) /     25.547 (MB)
	Total:                                     8.517 (MW) /     68.133 (MB)

	Size of irrep 0 of <ia|bc> integrals:      4.348 (MW) /     34.780 (MB)
	Size of irrep 1 of <ia|bc> integrals:      2.372 (MW) /     18.972 (MB)
	Total:                                     6.719 (MW) /     53.752 (MB)

	Size of irrep 0 of <Ia|Bc> integrals:      5.472 (MW) /     43.776 (MB)
	Size of irrep 1 of <Ia|Bc> integrals:      3.309 (MW) /     26.470 (MB)
	Total:                                     8.781 (MW) /     70.246 (MB)

	Size of irrep 0 of <iA|bC> integrals:      4.232 (MW) /     33.853 (MB)
	Size of irrep 1 of <iA|bC> integrals:      2.286 (MW) /     18.289 (MB)
	Total:                                     6.518 (MW) /     52.142 (MB)

	Size of irrep 0 of tIjAb amplitudes:       0.292 (MW) /      2.335 (MB)
	Size of irrep 1 of tIjAb amplitudes:       0.120 (MW) /      0.963 (MB)
	Total:                                     0.412 (MW) /      3.297 (MB)

	Nuclear Rep. energy          =     21.92573073426892
	SCF energy                   =   -150.87466513613319
	One-electron energy          =    -83.21900659435512
	Two-electron (AA) energy     =      9.94284494143916
	Two-electron (BB) energy     =      5.29166660802181
	Two-electron (AB) energy     =     20.65096912340380
	Two-electron energy          =     35.88548067286477
	Reference energy             =   -150.87466513613467

*** tstop() called on d3-17.compute.lan at Tue Mar  9 14:35:56 2021
Module time:
	user time   =     296.24 seconds =       4.94 minutes
	system time =      22.14 seconds =       0.37 minutes
	total time  =         47 seconds =       0.78 minutes
Total time:
	user time   =     356.29 seconds =       5.94 minutes
	system time =      25.17 seconds =       0.42 minutes
	total time  =         57 seconds =       0.95 minutes
            **************************
            *                        *
            *        CCENERGY        *
            *                        *
            **************************

    Nuclear Rep. energy (wfn)     =   21.925730734268917
    SCF energy          (wfn)     = -150.874665136133189
    Reference energy    (file100) = -150.874665136134666

    Input parameters:
    -----------------
    Wave function   =     CCSD_T
    Reference wfn   =     UHF
    Brueckner       =     No
    Memory (Mbytes) =     4000.0
    Maxiter         =     50
    R_Convergence   =     1.0e-10
    E_Convergence   =     1.0e-10
    Restart         =     Yes
    DIIS            =     Yes
    AO Basis        =     NONE
    ABCD            =     NEW
    Cache Level     =     2
    Cache Type      =     LRU
    Print Level     =     1
    Num. of threads =     12
    # Amps to Print =     10
    Print MP2 Amps? =     No
    Analyze T2 Amps =     No
    Print Pair Ener =     No
    Local CC        =     No
    SCS-MP2         =     False
    SCSN-MP2        =     False
    SCS-CCSD        =     False

MP2 correlation energy -0.4161206449287193
                Solving CC Amplitude Equations
                ------------------------------
  Iter             Energy              RMS        T1Diag      D1Diag    New D1Diag    D2Diag
  ----     ---------------------    ---------   ----------  ----------  ----------   --------
     0        -0.416120644928719    0.000e+00    0.000000    0.000000    0.000000    0.000000
     1        -0.426893030811301    5.666e-02    0.010459    0.000000    0.000000    0.000000
     2        -0.434979045997170    1.686e-02    0.010939    0.000000    0.000000    0.000000
     3        -0.437096635949701    8.482e-03    0.012778    0.000000    0.000000    0.000000
     4        -0.436971153240999    2.519e-03    0.013128    0.000000    0.000000    0.000000
     5        -0.436959462376225    1.274e-03    0.013273    0.000000    0.000000    0.000000
     6        -0.436985493208350    5.028e-04    0.013287    0.000000    0.000000    0.000000
     7        -0.436989606969637    2.284e-04    0.013277    0.000000    0.000000    0.000000
     8        -0.436990373308078    7.689e-05    0.013271    0.000000    0.000000    0.000000
     9        -0.436991610618957    4.684e-05    0.013271    0.000000    0.000000    0.000000
    10        -0.436990410255496    3.840e-05    0.013270    0.000000    0.000000    0.000000
    11        -0.436990507924521    3.692e-05    0.013271    0.000000    0.000000    0.000000
    12        -0.436990364199160    3.625e-05    0.013271    0.000000    0.000000    0.000000
    13        -0.436990279517317    3.574e-05    0.013272    0.000000    0.000000    0.000000
    14        -0.436990745547181    3.477e-05    0.013278    0.000000    0.000000    0.000000
    15        -0.436990811638092    3.227e-05    0.013293    0.000000    0.000000    0.000000
    16        -0.436990765824799    2.640e-05    0.013369    0.000000    0.000000    0.000000
    17        -0.436990712578903    1.519e-05    0.013422    0.000000    0.000000    0.000000
    18        -0.436990635345544    6.808e-06    0.013444    0.000000    0.000000    0.000000
    19        -0.436990806627666    2.988e-06    0.013449    0.000000    0.000000    0.000000
    20        -0.436990894934336    1.417e-06    0.013450    0.000000    0.000000    0.000000
    21        -0.436990900293278    5.830e-07    0.013451    0.000000    0.000000    0.000000
    22        -0.436990900498374    2.268e-07    0.013451    0.000000    0.000000    0.000000
    23        -0.436990900801149    9.873e-08    0.013451    0.000000    0.000000    0.000000
    24        -0.436990900603891    4.190e-08    0.013451    0.000000    0.000000    0.000000
    25        -0.436990901307756    2.171e-08    0.013451    0.000000    0.000000    0.000000
    26        -0.436990901685057    7.318e-09    0.013451    0.000000    0.000000    0.000000
    27        -0.436990901762021    2.392e-09    0.013451    0.000000    0.000000    0.000000
    28        -0.436990901790045    1.207e-09    0.013451    0.000000    0.000000    0.000000
    29        -0.436990901789636    7.937e-10    0.013451    0.000000    0.000000    0.000000
    30        -0.436990901779265    6.041e-10    0.013451    0.000000    0.000000    0.000000
    31        -0.436990901773576    5.307e-10    0.013451    0.000000    0.000000    0.000000
    32        -0.436990901771367    5.075e-10    0.013451    0.000000    0.000000    0.000000
    33        -0.436990901769862    4.914e-10    0.013451    0.000000    0.000000    0.000000
    34        -0.436990901769085    4.492e-10    0.013451    0.000000    0.000000    0.000000
    35        -0.436990901768506    3.377e-10    0.013451    0.000000    0.000000    0.000000
    36        -0.436990901769445    1.827e-10    0.013451    0.000000    0.000000    0.000000

      * MP2 total energy                      = -151.290785781063391
      * CCSD total energy                     = -151.311656037902679
      * CCSD(T) total energy                     = -151.323933666012749
*** Psi4 exiting successfully. Buy a developer a beer!
