                               Psi4 1.3.2 release

  ==> Input File <==

--------------------------------------------------------------------------
memory 4 GB

molecule  {
0 3
O   -1.504765099520   -0.002008033377    0.000000000000
H   -0.554028862420    0.150015766037    0.000000000000
H   -1.891068622373    0.879262112305    0.000000000000
O    1.658828469661   -0.062845830216    0.000000000000
}
set {
basis aug-cc-pvtz
reference uhf
e_convergence 10
scf_type pk
freeze_core true
}

set ccenergy {
e_convergence 10
r_convergence 10
}

e = energy('ccsd(t)')

print_out('Stephenergy {}'.format(e))

--------------------------------------------------------------------------

    Molecular point group: cs

    Geometry (in Angstrom), charge = 0, multiplicity = 3:

       Center              X                  Y                   Z               Mass
    ------------   -----------------  -----------------  -----------------  -----------------
         O           -1.504765099520    -0.002008033377     0.000000000000    15.994914619570
         H           -0.554028862420     0.150015766037     0.000000000000     1.007825032230
         H           -1.891068622373     0.879262112305     0.000000000000     1.007825032230
         O            1.658828469661    -0.062845830216     0.000000000000    15.994914619570

  Charge       = 0
  Multiplicity = 3
  Basis Set: AUG-CC-PVTZ
    Blend: AUG-CC-PVTZ

    Orbital Energies [Eh]
    ---------------------

    Alpha Occupied:

       1Ap   -20.733144     2Ap   -20.558774     3Ap    -1.442475
       4Ap    -1.342647     5Ap    -0.733232     1App   -0.732868
       6Ap    -0.710160     7Ap    -0.634539     8Ap    -0.574708
       2App   -0.501823

    Alpha Virtual:

       9Ap     0.034221    10Ap     0.053475    11Ap     0.128137
       3App    0.132870    12Ap     0.148132    13Ap     0.160753
      14Ap     0.183902     4App    0.186809    15Ap     0.214130
      16Ap     0.241971    17Ap     0.264524     5App    0.286286
      18Ap     0.303588     6App    0.320834    19Ap     0.364724
      20Ap     0.405737    21Ap     0.460314    22Ap     0.568372
       7App    0.602502    23Ap     0.608689    24Ap     0.627818
      25Ap     0.681051     8App    0.709782    26Ap     0.714729
       9App    0.736547    10App    0.748689    27Ap     0.752112
      28Ap     0.811564    11App    0.825931    29Ap     0.836879
      30Ap     0.890527    12App    0.890535    31Ap     0.923162
      32Ap     0.945051    13App    0.947535    33Ap     0.951275
      14App    0.972091    34Ap     0.979161    35Ap     1.043068
      36Ap     1.135227    15App    1.154509    37Ap     1.170073
      38Ap     1.185706    39Ap     1.261503    16App    1.293925
      40Ap     1.316861    17App    1.527238    41Ap     1.586658
      18App    1.598267    42Ap     1.714145    43Ap     1.809767
      44Ap     1.841117    45Ap     1.977503    19App    1.977640
      46Ap     1.978598    20App    2.013131    47Ap     2.017937
      21App    2.048556    48Ap     2.060763    22App    2.122814
      49Ap     2.153649    50Ap     2.176202    23App    2.212633
      24App    2.302393    51Ap     2.311692    52Ap     2.337755
      53Ap     2.414849    25App    2.442380    54Ap     2.458456
      55Ap     2.492859    26App    2.526164    56Ap     2.629859
      57Ap     2.710368    27App    2.727704    58Ap     2.736480
      59Ap     2.859752    60Ap     2.933709    28App    2.943374
      61Ap     3.695175    62Ap     3.892044    29App    4.035401
      30App    4.062598    63Ap     4.074069    31App    4.177557
      64Ap     4.209197    65Ap     4.264509    32App    4.302834
      33App    4.391022    66Ap     4.407976    34App    4.429848
      67Ap     4.444085    68Ap     4.600424    69Ap     4.777896
      70Ap     4.957164    35App    5.154737    71Ap     5.169793
      72Ap     5.298925    73Ap     5.388164    36App    5.523979
      74Ap     5.691579    75Ap     6.187818    37App    6.312275
      76Ap     6.312305    38App    6.375406    77Ap     6.378121
      39App    6.518554    78Ap     6.520091    79Ap     6.559789
      80Ap     6.637270    40App    6.735073    81Ap     6.814309
      41App    6.819992    82Ap     6.919448    42App    6.936759
      83Ap     6.961513    84Ap     7.050967    43App    7.148116
      44App    7.271617    45App    7.324639    85Ap     7.325709
      86Ap     7.363392    46App    7.435880    87Ap     7.647226
      88Ap     7.946100    89Ap     7.959351    90Ap     8.807518
      91Ap     9.512376    92Ap    16.304595

    Beta Occupied:

       1Ap   -20.654359     2Ap   -20.558904     3Ap    -1.343222
       4Ap    -1.100010     5Ap    -0.709346     6Ap    -0.579754
       7Ap    -0.541240     1App   -0.501867

    Beta Virtual:

       8Ap     0.034363     2App    0.049301     9Ap     0.049500
      10Ap     0.055226    11Ap     0.143885    12Ap     0.152868
       3App    0.161189    13Ap     0.178104    14Ap     0.207859
      15Ap     0.225276     4App    0.227155    16Ap     0.250757
      17Ap     0.265808     5App    0.286496    18Ap     0.305734
       6App    0.324584    19Ap     0.368624    20Ap     0.416641
      21Ap     0.461556    22Ap     0.571937    23Ap     0.628581
       7App    0.634898    24Ap     0.640431    25Ap     0.685767
      26Ap     0.715372     8App    0.721886     9App    0.739626
      10App    0.750391    27Ap     0.768914    28Ap     0.817950
      29Ap     0.866545    11App    0.868858    30Ap     0.920019
      12App    0.941695    31Ap     0.941958    13App    0.949712
      32Ap     0.952646    33Ap     0.970318    34Ap     1.017572
      14App    1.020318    35Ap     1.045465    15App    1.157677
      36Ap     1.162853    37Ap     1.173777    38Ap     1.216415
      39Ap     1.264636    16App    1.304529    40Ap     1.325598
      17App    1.527952    41Ap     1.588995    18App    1.599722
      42Ap     1.740590    43Ap     1.815113    44Ap     1.851727
      45Ap     1.986332    46Ap     2.015611    19App    2.015620
      20App    2.053811    47Ap     2.065522    21App    2.170965
      48Ap     2.176271    22App    2.179639    49Ap     2.194768
      50Ap     2.244856    23App    2.249869    24App    2.305746
      51Ap     2.317115    52Ap     2.360308    53Ap     2.419347
      25App    2.445039    54Ap     2.459267    55Ap     2.499183
      26App    2.534663    56Ap     2.637011    57Ap     2.726521
      27App    2.729020    58Ap     2.740799    59Ap     2.861571
      60Ap     2.938104    28App    2.944006    61Ap     3.695851
      62Ap     3.894435    29App    4.038125    30App    4.146326
      63Ap     4.193405    64Ap     4.243564    31App    4.262376
      65Ap     4.276458    32App    4.302884    33App    4.391092
      66Ap     4.411844    34App    4.430552    67Ap     4.488241
      68Ap     4.602896    69Ap     4.779509    70Ap     4.959179
      35App    5.154724    71Ap     5.170098    72Ap     5.299164
      73Ap     5.389393    36App    5.524041    74Ap     5.691935
      75Ap     6.189024    76Ap     6.421133    37App    6.421137
      38App    6.450607    77Ap     6.453355    78Ap     6.534927
      39App    6.572470    79Ap     6.600852    80Ap     6.682249
      40App    6.740938    81Ap     6.921122    41App    7.005137
      82Ap     7.006686    42App    7.045910    83Ap     7.068504
      84Ap     7.130726    43App    7.150646    44App    7.271856
      45App    7.325378    85Ap     7.326008    86Ap     7.364169
      46App    7.436293    87Ap     7.648102    88Ap     7.947033
      89Ap     7.959748    90Ap     8.809085    91Ap     9.587369
      92Ap    16.304882

    Final Occupation by Irrep:
             Ap   App
    DOCC [     7,    1 ]
    SOCC [     1,    1 ]

  @UHF Final Energy:  -150.87443506872776

   => Energetics <=

    Nuclear Repulsion Energy =             22.9043344251450698
    One-Electron Energy =                -253.6044679573812459
    Two-Electron Energy =                  79.8256984635084166
    Total Energy =                       -150.8744350687277631

  UHF NO Occupations:
  HONO-2 :    7 Ap 1.9970282
  HONO-1 :    2App 1.0000000
  HONO-0 :    8 Ap 1.0000000
  LUNO+0 :    9 Ap 0.0029718
  LUNO+1 :   10 Ap 0.0017157
  LUNO+2 :   11 Ap 0.0000024
  LUNO+3 :   12 Ap 0.0000017

Computation Completed

Properties will be evaluated at   0.000000,   0.000000,   0.000000 [a0]

Properties computed using the SCF density matrix

  Nuclear Dipole Moment: [e a0]
     X:    -2.2915      Y:     0.9646      Z:     0.0000

  Electronic Dipole Moment: [e a0]
     X:     2.7576      Y:    -0.2915      Z:     0.0000

  Dipole Moment: [e a0]
     X:     0.4662      Y:     0.6731      Z:     0.0000     Total:     0.8188

  Dipole Moment: [D]
     X:     1.1848      Y:     1.7108      Z:     0.0000     Total:     2.0811

*** tstop() called on c5-20.compute.lan at Tue Mar  9 15:30:07 2021
Module time:
	user time   =      58.46 seconds =       0.97 minutes
	system time =       0.88 seconds =       0.01 minutes
	total time  =          5 seconds =       0.08 minutes
Total time:
	user time   =      58.46 seconds =       0.97 minutes
	system time =       0.88 seconds =       0.01 minutes
	total time  =          5 seconds =       0.08 minutes
 MINTS: Wrapper to libmints.
   by Justin Turney

   Calculation information:
      Number of threads:                12
      Number of atoms:                   4
      Number of AO shells:              46
      Number of SO shells:              46
      Number of primitives:             82
      Number of atomic orbitals:       160
      Number of basis functions:       138

      Number of irreps:                  2
      Integral cutoff                 0.00e+00
      Number of functions per irrep: [  92   46 ]

 OEINTS: Overlap, kinetic, potential, dipole, and quadrupole integrals
         stored in file 35.

      Computing two-electron integrals...done
      Computed 22947024 non-zero two-electron integrals.
        Stored in file 33.

*** tstart() called on c5-20.compute.lan
*** at Tue Mar  9 15:30:10 2021

	Wfn Parameters:
	--------------------
	Wavefunction         = CCSD_T
	Number of irreps     = 2
	Number of MOs        = 138
	Number of active MOs = 136
	AO-Basis             = NONE
	Semicanonical        = false
	Reference            = UHF
	Print Level          = 1

	IRREP	# MOs	# FZDC	# DOCC	# SOCC	# VIRT	# FZVR
	-----	-----	------	------	------	------	------
	 Ap	   92	    2	    5	    1	    84	    0
	 App	   46	    0	    1	    1	    44	    0
	Transforming integrals...
	IWL integrals will be deleted.
	(OO|OO)...
	Presorting SO-basis two-electron integrals.
	Sorting File: SO Ints (nn|nn) nbuckets = 1
	Transforming the one-electron integrals and constructing Fock matrices
	Starting AA/AB first half-transformation.
	Sorting AA/AB half-transformed integrals.
	Starting BB first half-transformation.
	Sorting BB half-transformed integrals.
	First half integral transformation complete.
	Starting AA second half-transformation.
	Starting AB second half-transformation.
	Starting BB second half-transformation.
	Two-electron integral transformation complete.
	(OO|OV)...
	Starting AA second half-transformation.
	Starting AB second half-transformation.
	Starting BB second half-transformation.
	Two-electron integral transformation complete.
	(OO|VV)...
	Starting AA second half-transformation.
	Starting AB second half-transformation.
	Starting BB second half-transformation.
	Two-electron integral transformation complete.
	(OV|OO)...
	Starting AA/AB first half-transformation.
	Sorting AA/AB half-transformed integrals.
	Starting BB first half-transformation.
	Sorting BB half-transformed integrals.
	First half integral transformation complete.
	Starting AA second half-transformation.
	Starting AB second half-transformation.
	Starting BB second half-transformation.
	Two-electron integral transformation complete.
	(OV|OV)...
	Starting AA second half-transformation.
	Starting AB second half-transformation.
	Starting BB second half-transformation.
	Two-electron integral transformation complete.
	(OV|VV)...
	Starting AA second half-transformation.
	Starting AB second half-transformation.
	Starting BB second half-transformation.
	Two-electron integral transformation complete.
	(VV|OO)...
	Starting AA/AB first half-transformation.
	Sorting AA/AB half-transformed integrals.
	Starting BB first half-transformation.
	Sorting BB half-transformed integrals.
	First half integral transformation complete.
	Starting AA second half-transformation.
	Starting AB second half-transformation.
	Starting BB second half-transformation.
	Two-electron integral transformation complete.
	(VV|OV)...
	Starting AA second half-transformation.
	Starting AB second half-transformation.
	Starting BB second half-transformation.
	Two-electron integral transformation complete.
	(VV|VV)...
	Starting AA second half-transformation.
	Starting AB second half-transformation.
	Starting BB second half-transformation.
	Two-electron integral transformation complete.
	Frozen core energy     =   -125.85705493695775

	Size of irrep 0 of <AB|CD> integrals:     19.643 (MW) /    157.141 (MB)
	Size of irrep 1 of <AB|CD> integrals:     13.660 (MW) /    109.283 (MB)
	Total:                                    33.303 (MW) /    266.424 (MB)

	Size of irrep 0 of <ab|cd> integrals:     20.794 (MW) /    166.349 (MB)
	Size of irrep 1 of <ab|cd> integrals:     14.631 (MW) /    117.045 (MB)
	Total:                                    35.424 (MW) /    283.394 (MB)

	Size of irrep 0 of <Ab|Cd> integrals:     83.174 (MW) /    665.395 (MB)
	Size of irrep 1 of <Ab|Cd> integrals:     56.550 (MW) /    452.403 (MB)
	Total:                                   139.725 (MW) /   1117.798 (MB)

	Size of irrep 0 of <IA|BC> integrals:      5.323 (MW) /     42.586 (MB)
	Size of irrep 1 of <IA|BC> integrals:      3.193 (MW) /     25.547 (MB)
	Total:                                     8.517 (MW) /     68.133 (MB)

	Size of irrep 0 of <ia|bc> integrals:      4.348 (MW) /     34.780 (MB)
	Size of irrep 1 of <ia|bc> integrals:      2.372 (MW) /     18.972 (MB)
	Total:                                     6.719 (MW) /     53.752 (MB)

	Size of irrep 0 of <Ia|Bc> integrals:      5.472 (MW) /     43.776 (MB)
	Size of irrep 1 of <Ia|Bc> integrals:      3.309 (MW) /     26.470 (MB)
	Total:                                     8.781 (MW) /     70.246 (MB)

	Size of irrep 0 of <iA|bC> integrals:      4.232 (MW) /     33.853 (MB)
	Size of irrep 1 of <iA|bC> integrals:      2.286 (MW) /     18.289 (MB)
	Total:                                     6.518 (MW) /     52.142 (MB)

	Size of irrep 0 of tIjAb amplitudes:       0.292 (MW) /      2.335 (MB)
	Size of irrep 1 of tIjAb amplitudes:       0.120 (MW) /      0.963 (MB)
	Total:                                     0.412 (MW) /      3.297 (MB)

	Nuclear Rep. energy          =     22.90433442514507
	SCF energy                   =   -150.87443506872776
	One-electron energy          =    -84.39553839487780
	Two-electron (AA) energy     =     10.13603132673168
	Two-electron (BB) energy     =      5.39186642445932
	Two-electron (AB) energy     =     20.94592608677062
	Two-electron energy          =     36.47382383796162
	Reference energy             =   -150.87443506872887

*** tstop() called on c5-20.compute.lan at Tue Mar  9 15:30:44 2021
Module time:
	user time   =     105.50 seconds =       1.76 minutes
	system time =      18.41 seconds =       0.31 minutes
	total time  =         34 seconds =       0.57 minutes
Total time:
	user time   =     170.31 seconds =       2.84 minutes
	system time =      19.86 seconds =       0.33 minutes
	total time  =         42 seconds =       0.70 minutes
            **************************
            *                        *
            *        CCENERGY        *
            *                        *
            **************************

    Nuclear Rep. energy (wfn)     =   22.904334425145070
    SCF energy          (wfn)     = -150.874435068727763
    Reference energy    (file100) = -150.874435068728872

    Input parameters:
    -----------------
    Wave function   =     CCSD_T
    Reference wfn   =     UHF
    Brueckner       =     No
    Memory (Mbytes) =     4000.0
    Maxiter         =     50
    R_Convergence   =     1.0e-10
    E_Convergence   =     1.0e-10
    Restart         =     Yes
    DIIS            =     Yes
    AO Basis        =     NONE
    ABCD            =     NEW
    Cache Level     =     2
    Cache Type      =     LRU
    Print Level     =     1
    Num. of threads =     12
    # Amps to Print =     10
    Print MP2 Amps? =     No
    Analyze T2 Amps =     No
    Print Pair Ener =     No
    Local CC        =     No
    SCS-MP2         =     False
    SCSN-MP2        =     False
    SCS-CCSD        =     False

MP2 correlation energy -0.4166485108696319
                Solving CC Amplitude Equations
                ------------------------------
  Iter             Energy              RMS        T1Diag      D1Diag    New D1Diag    D2Diag
  ----     ---------------------    ---------   ----------  ----------  ----------   --------
     0        -0.416648510869632    0.000e+00    0.000000    0.000000    0.000000    0.000000
     1        -0.427357141047541    5.692e-02    0.010559    0.000000    0.000000    0.000000
     2        -0.435450445927445    1.690e-02    0.011037    0.000000    0.000000    0.000000
     3        -0.437574186128115    8.581e-03    0.012910    0.000000    0.000000    0.000000
     4        -0.437448360544311    2.536e-03    0.013277    0.000000    0.000000    0.000000
     5        -0.437433853018667    1.321e-03    0.013434    0.000000    0.000000    0.000000
     6        -0.437461087491087    5.151e-04    0.013456    0.000000    0.000000    0.000000
     7        -0.437465727508894    2.651e-04    0.013451    0.000000    0.000000    0.000000
     8        -0.437466328312616    9.955e-05    0.013446    0.000000    0.000000    0.000000
     9        -0.437467704234453    7.416e-05    0.013447    0.000000    0.000000    0.000000
    10        -0.437466142208793    6.395e-05    0.013448    0.000000    0.000000    0.000000
    11        -0.437466288742747    6.107e-05    0.013450    0.000000    0.000000    0.000000
    12        -0.437466004212563    5.938e-05    0.013452    0.000000    0.000000    0.000000
    13        -0.437465996862274    5.825e-05    0.013455    0.000000    0.000000    0.000000
    14        -0.437467161518647    5.640e-05    0.013473    0.000000    0.000000    0.000000
    15        -0.437467538567260    4.997e-05    0.013544    0.000000    0.000000    0.000000
    16        -0.437467314209752    3.352e-05    0.013683    0.000000    0.000000    0.000000
    17        -0.437466969800802    1.620e-05    0.013752    0.000000    0.000000    0.000000
    18        -0.437466838907592    7.603e-06    0.013770    0.000000    0.000000    0.000000
    19        -0.437467097683976    3.361e-06    0.013774    0.000000    0.000000    0.000000
    20        -0.437467209761047    1.505e-06    0.013775    0.000000    0.000000    0.000000
    21        -0.437467217703100    5.934e-07    0.013775    0.000000    0.000000    0.000000
    22        -0.437467219019425    2.814e-07    0.013775    0.000000    0.000000    0.000000
    23        -0.437467217934920    1.460e-07    0.013775    0.000000    0.000000    0.000000
    24        -0.437467217248983    6.046e-08    0.013775    0.000000    0.000000    0.000000
    25        -0.437467218212579    3.290e-08    0.013775    0.000000    0.000000    0.000000
    26        -0.437467218671507    2.544e-08    0.013775    0.000000    0.000000    0.000000
    27        -0.437467218829479    2.381e-08    0.013775    0.000000    0.000000    0.000000
    28        -0.437467218778814    2.307e-08    0.013775    0.000000    0.000000    0.000000
    29        -0.437467218618314    2.241e-08    0.013775    0.000000    0.000000    0.000000
    30        -0.437467218353392    2.136e-08    0.013775    0.000000    0.000000    0.000000
    31        -0.437467218539800    1.817e-08    0.013775    0.000000    0.000000    0.000000
    32        -0.437467218883726    9.640e-09    0.013775    0.000000    0.000000    0.000000
    33        -0.437467218986866    4.220e-09    0.013775    0.000000    0.000000    0.000000
    34        -0.437467219040017    1.725e-09    0.013775    0.000000    0.000000    0.000000
    35        -0.437467219046925    6.784e-10    0.013775    0.000000    0.000000    0.000000
    36        -0.437467219046706    2.901e-10    0.013775    0.000000    0.000000    0.000000

      * MP2 total energy                      = -151.291083579598507
      * CCSD total energy                     = -151.311902287774871
      * CCSD(T) total energy                     = -151.324262409235644
*** Psi4 exiting successfully. Buy a developer a beer!
