                               Psi4 1.3.2 release

  ==> Input File <==

--------------------------------------------------------------------------
memory 4 GB

molecule  {
0 3
O   -1.638982113598   -0.022705896175    0.000000000000
H   -0.676942049298   -0.022333409555    0.000000000000
H   -1.865159548958    0.910719744780    0.000000000000
O    1.799157624761   -0.033270519343    0.000000000000
}
set {
basis aug-cc-pvtz
reference uhf
e_convergence 10
scf_type pk
freeze_core true
}

set ccenergy {
e_convergence 10
r_convergence 10
}

e = energy('ccsd(t)')

print_out('Stephenergy {}'.format(e))

--------------------------------------------------------------------------

    Molecular point group: cs

    Geometry (in Angstrom), charge = 0, multiplicity = 3:

       Center              X                  Y                   Z               Mass
    ------------   -----------------  -----------------  -----------------  -----------------
         O           -1.638982113598    -0.022705896175     0.000000000000    15.994914619570
         H           -0.676942049298    -0.022333409555     0.000000000000     1.007825032230
         H           -1.865159548958     0.910719744780     0.000000000000     1.007825032230
         O            1.799157624761    -0.033270519343     0.000000000000    15.994914619570

  Charge       = 0
  Multiplicity = 3
  Basis Set: AUG-CC-PVTZ
    Blend: AUG-CC-PVTZ

    Orbital Energies [Eh]
    ---------------------

    Alpha Occupied:

       1Ap   -20.730870     2Ap   -20.561653     3Ap    -1.439678
       4Ap    -1.346119     5Ap    -0.730595     1App   -0.730505
       6Ap    -0.708946     7Ap    -0.632902     8Ap    -0.579400
       2App   -0.504345

    Alpha Virtual:

       9Ap     0.034160    10Ap     0.053418    11Ap     0.128614
       3App    0.132433    12Ap     0.147338    13Ap     0.160392
      14Ap     0.182826     4App    0.183116    15Ap     0.207011
      16Ap     0.235661    17Ap     0.268848     5App    0.281063
      18Ap     0.289526     6App    0.318183    19Ap     0.361836
      20Ap     0.386981    21Ap     0.457234    22Ap     0.554743
       7App    0.603429    23Ap     0.608018    24Ap     0.642911
      25Ap     0.666984     8App    0.686520    26Ap     0.711356
       9App    0.733448    10App    0.747583    27Ap     0.757472
      28Ap     0.789106    11App    0.825010    29Ap     0.837837
      30Ap     0.853883    12App    0.876414    31Ap     0.913716
      32Ap     0.928462    13App    0.937440    33Ap     0.949411
      14App    0.973537    34Ap     0.975789    35Ap     1.038658
      36Ap     1.084644    15App    1.163042    37Ap     1.170509
      16App    1.211567    38Ap     1.219403    39Ap     1.265228
      40Ap     1.276620    17App    1.521681    41Ap     1.531138
      18App    1.589388    42Ap     1.599986    43Ap     1.807815
      44Ap     1.815827    19App    1.978630    45Ap     1.978688
      46Ap     2.004647    20App    2.009477    47Ap     2.018915
      21App    2.034567    48Ap     2.040012    22App    2.089470
      49Ap     2.122882    50Ap     2.138802    23App    2.162491
      51Ap     2.238886    24App    2.286821    52Ap     2.326056
      53Ap     2.368723    25App    2.428293    54Ap     2.453745
      26App    2.458618    55Ap     2.484370    56Ap     2.546491
      57Ap     2.656459    27App    2.722402    58Ap     2.722674
      59Ap     2.855912    60Ap     2.906612    28App    2.934802
      61Ap     3.685936    62Ap     3.811985    29App    4.031428
      30App    4.054027    63Ap     4.068226    31App    4.143466
      64Ap     4.179203    65Ap     4.271333    32App    4.288446
      66Ap     4.359879    33App    4.389788    67Ap     4.425283
      34App    4.430028    68Ap     4.566491    69Ap     4.775462
      70Ap     4.941525    35App    5.153853    71Ap     5.185324
      72Ap     5.294789    73Ap     5.371471    36App    5.530336
      74Ap     5.676323    75Ap     6.196519    37App    6.314021
      76Ap     6.314042    38App    6.366670    77Ap     6.367784
      39App    6.466392    78Ap     6.483520    79Ap     6.529937
      80Ap     6.595625    40App    6.717173    81Ap     6.814218
      41App    6.818190    82Ap     6.921514    42App    6.924700
      83Ap     6.953122    84Ap     7.039142    43App    7.140659
      44App    7.271301    85Ap     7.311904    45App    7.326218
      86Ap     7.354322    46App    7.410341    87Ap     7.636371
      88Ap     7.923027    89Ap     7.959619    90Ap     8.815589
      91Ap     8.990599    92Ap    16.336822

    Beta Occupied:

       1Ap   -20.652125     2Ap   -20.561726     3Ap    -1.346408
       4Ap    -1.097130     5Ap    -0.708754     6Ap    -0.582214
       7Ap    -0.540555     1App   -0.504383

    Beta Virtual:

       8Ap     0.034082     9Ap     0.047388     2App    0.049969
      10Ap     0.058703    11Ap     0.143137    12Ap     0.151736
       3App    0.160098    13Ap     0.179779    14Ap     0.207470
      15Ap     0.217463     4App    0.226529    16Ap     0.244521
      17Ap     0.271253     5App    0.281257    18Ap     0.292176
       6App    0.319665    19Ap     0.365187    20Ap     0.393954
      21Ap     0.457704    22Ap     0.556883     7App    0.636314
      23Ap     0.638321    24Ap     0.646240    25Ap     0.670544
       8App    0.700501    26Ap     0.711986     9App    0.734217
      10App    0.748641    27Ap     0.771377    28Ap     0.800563
      29Ap     0.845048    11App    0.860826    30Ap     0.911831
      12App    0.925578    31Ap     0.929171    32Ap     0.946170
      13App    0.948220    33Ap     0.967027    34Ap     1.008310
      14App    1.022961    35Ap     1.040232    36Ap     1.093673
      15App    1.167493    37Ap     1.173555    16App    1.219316
      38Ap     1.260336    39Ap     1.271267    40Ap     1.284986
      17App    1.522467    41Ap     1.544958    18App    1.590362
      42Ap     1.626966    43Ap     1.810371    44Ap     1.818277
      45Ap     2.016076    19App    2.016787    46Ap     2.017069
      20App    2.038708    47Ap     2.045631    21App    2.124507
      48Ap     2.163843    49Ap     2.173241    22App    2.179295
      50Ap     2.180478    23App    2.213761    51Ap     2.279106
      24App    2.288252    52Ap     2.335778    53Ap     2.385146
      25App    2.431724    54Ap     2.455882    26App    2.466104
      55Ap     2.491146    56Ap     2.552286    57Ap     2.663120
      27App    2.722977    58Ap     2.724803    59Ap     2.859459
      60Ap     2.908506    28App    2.935446    61Ap     3.686209
      62Ap     3.813078    29App    4.032083    30App    4.127795
      63Ap     4.169797    31App    4.239692    64Ap     4.241407
      65Ap     4.277937    32App    4.288482    66Ap     4.376289
      33App    4.390074    34App    4.431512    67Ap     4.456326
      68Ap     4.567241    69Ap     4.776473    70Ap     4.942248
      35App    5.153842    71Ap     5.185725    72Ap     5.294996
      73Ap     5.372269    36App    5.530336    74Ap     5.676646
      75Ap     6.197388    37App    6.422974    76Ap     6.422989
      38App    6.442811    77Ap     6.444072    78Ap     6.518124
      39App    6.522262    79Ap     6.551122    80Ap     6.642653
      40App    6.719565    81Ap     6.922950    41App    7.005560
      82Ap     7.006350    42App    7.034287    83Ap     7.060093
      84Ap     7.122208    43App    7.142514    44App    7.271424
      85Ap     7.312151    45App    7.326762    86Ap     7.354458
      46App    7.410904    87Ap     7.638588    88Ap     7.923436
      89Ap     7.959936    90Ap     8.819351    91Ap     9.064627
      92Ap    16.337117

    Final Occupation by Irrep:
             Ap   App
    DOCC [     7,    1 ]
    SOCC [     1,    1 ]

  @UHF Final Energy:  -150.87469065951225

   => Energetics <=

    Nuclear Repulsion Energy =             21.8374427546215699
    One-Electron Energy =                -251.4659600834949629
    Two-Electron Energy =                  78.7538266693611320
    Total Energy =                       -150.8746906595122539

  UHF NO Occupations:
  HONO-2 :    7 Ap 1.9970404
  HONO-1 :    8 Ap 1.0000000
  HONO-0 :    2App 1.0000000
  LUNO+0 :    9 Ap 0.0029596
  LUNO+1 :   10 Ap 0.0017387
  LUNO+2 :   11 Ap 0.0000024
  LUNO+3 :   12 Ap 0.0000006

Computation Completed

Properties will be evaluated at   0.000000,   0.000000,   0.000000 [a0]

Properties computed using the SCF density matrix

  Nuclear Dipole Moment: [e a0]
     X:    -2.3824      Y:     0.8326      Z:     0.0000

  Electronic Dipole Moment: [e a0]
     X:     2.9379      Y:    -0.2216      Z:     0.0000

  Dipole Moment: [e a0]
     X:     0.5555      Y:     0.6110      Z:     0.0000     Total:     0.8258

  Dipole Moment: [D]
     X:     1.4121      Y:     1.5530      Z:     0.0000     Total:     2.0989

*** tstop() called on d1-14.compute.lan at Tue Mar  9 14:29:35 2021
Module time:
	user time   =      60.57 seconds =       1.01 minutes
	system time =       3.15 seconds =       0.05 minutes
	total time  =          6 seconds =       0.10 minutes
Total time:
	user time   =      60.57 seconds =       1.01 minutes
	system time =       3.15 seconds =       0.05 minutes
	total time  =          6 seconds =       0.10 minutes
 MINTS: Wrapper to libmints.
   by Justin Turney

   Calculation information:
      Number of threads:                12
      Number of atoms:                   4
      Number of AO shells:              46
      Number of SO shells:              46
      Number of primitives:             82
      Number of atomic orbitals:       160
      Number of basis functions:       138

      Number of irreps:                  2
      Integral cutoff                 0.00e+00
      Number of functions per irrep: [  92   46 ]

 OEINTS: Overlap, kinetic, potential, dipole, and quadrupole integrals
         stored in file 35.

      Computing two-electron integrals...done
      Computed 22912337 non-zero two-electron integrals.
        Stored in file 33.

*** tstart() called on d1-14.compute.lan
*** at Tue Mar  9 14:29:39 2021

	Wfn Parameters:
	--------------------
	Wavefunction         = CCSD_T
	Number of irreps     = 2
	Number of MOs        = 138
	Number of active MOs = 136
	AO-Basis             = NONE
	Semicanonical        = false
	Reference            = UHF
	Print Level          = 1

	IRREP	# MOs	# FZDC	# DOCC	# SOCC	# VIRT	# FZVR
	-----	-----	------	------	------	------	------
	 Ap	   92	    2	    5	    1	    84	    0
	 App	   46	    0	    1	    1	    44	    0
	Transforming integrals...
	IWL integrals will be deleted.
	(OO|OO)...
	Presorting SO-basis two-electron integrals.
	Sorting File: SO Ints (nn|nn) nbuckets = 1
	Transforming the one-electron integrals and constructing Fock matrices
	Starting AA/AB first half-transformation.
	Sorting AA/AB half-transformed integrals.
	Starting BB first half-transformation.
	Sorting BB half-transformed integrals.
	First half integral transformation complete.
	Starting AA second half-transformation.
	Starting AB second half-transformation.
	Starting BB second half-transformation.
	Two-electron integral transformation complete.
	(OO|OV)...
	Starting AA second half-transformation.
	Starting AB second half-transformation.
	Starting BB second half-transformation.
	Two-electron integral transformation complete.
	(OO|VV)...
	Starting AA second half-transformation.
	Starting AB second half-transformation.
	Starting BB second half-transformation.
	Two-electron integral transformation complete.
	(OV|OO)...
	Starting AA/AB first half-transformation.
	Sorting AA/AB half-transformed integrals.
	Starting BB first half-transformation.
	Sorting BB half-transformed integrals.
	First half integral transformation complete.
	Starting AA second half-transformation.
	Starting AB second half-transformation.
	Starting BB second half-transformation.
	Two-electron integral transformation complete.
	(OV|OV)...
	Starting AA second half-transformation.
	Starting AB second half-transformation.
	Starting BB second half-transformation.
	Two-electron integral transformation complete.
	(OV|VV)...
	Starting AA second half-transformation.
	Starting AB second half-transformation.
	Starting BB second half-transformation.
	Two-electron integral transformation complete.
	(VV|OO)...
	Starting AA/AB first half-transformation.
	Sorting AA/AB half-transformed integrals.
	Starting BB first half-transformation.
	Sorting BB half-transformed integrals.
	First half integral transformation complete.
	Starting AA second half-transformation.
	Starting AB second half-transformation.
	Starting BB second half-transformation.
	Two-electron integral transformation complete.
	(VV|OV)...
	Starting AA second half-transformation.
	Starting AB second half-transformation.
	Starting BB second half-transformation.
	Two-electron integral transformation complete.
	(VV|VV)...
	Starting AA second half-transformation.
	Starting AB second half-transformation.
	Starting BB second half-transformation.
	Two-electron integral transformation complete.
	Frozen core energy     =   -125.42972114284289

	Size of irrep 0 of <AB|CD> integrals:     19.643 (MW) /    157.141 (MB)
	Size of irrep 1 of <AB|CD> integrals:     13.660 (MW) /    109.283 (MB)
	Total:                                    33.303 (MW) /    266.424 (MB)

	Size of irrep 0 of <ab|cd> integrals:     20.794 (MW) /    166.349 (MB)
	Size of irrep 1 of <ab|cd> integrals:     14.631 (MW) /    117.045 (MB)
	Total:                                    35.424 (MW) /    283.394 (MB)

	Size of irrep 0 of <Ab|Cd> integrals:     83.174 (MW) /    665.395 (MB)
	Size of irrep 1 of <Ab|Cd> integrals:     56.550 (MW) /    452.403 (MB)
	Total:                                   139.725 (MW) /   1117.798 (MB)

	Size of irrep 0 of <IA|BC> integrals:      5.323 (MW) /     42.586 (MB)
	Size of irrep 1 of <IA|BC> integrals:      3.193 (MW) /     25.547 (MB)
	Total:                                     8.517 (MW) /     68.133 (MB)

	Size of irrep 0 of <ia|bc> integrals:      4.348 (MW) /     34.780 (MB)
	Size of irrep 1 of <ia|bc> integrals:      2.372 (MW) /     18.972 (MB)
	Total:                                     6.719 (MW) /     53.752 (MB)

	Size of irrep 0 of <Ia|Bc> integrals:      5.472 (MW) /     43.776 (MB)
	Size of irrep 1 of <Ia|Bc> integrals:      3.309 (MW) /     26.470 (MB)
	Total:                                     8.781 (MW) /     70.246 (MB)

	Size of irrep 0 of <iA|bC> integrals:      4.232 (MW) /     33.853 (MB)
	Size of irrep 1 of <iA|bC> integrals:      2.286 (MW) /     18.289 (MB)
	Total:                                     6.518 (MW) /     52.142 (MB)

	Size of irrep 0 of tIjAb amplitudes:       0.292 (MW) /      2.335 (MB)
	Size of irrep 1 of tIjAb amplitudes:       0.120 (MW) /      0.963 (MB)
	Total:                                     0.412 (MW) /      3.297 (MB)

	Nuclear Rep. energy          =     21.83744275462157
	SCF energy                   =   -150.87469065951225
	One-electron energy          =    -83.11288975654504
	Two-electron (AA) energy     =      9.92411133645860
	Two-electron (BB) energy     =      5.28235806162537
	Two-electron (AB) energy     =     20.62400808716865
	Two-electron energy          =     35.83047748525262
	Reference energy             =   -150.87469065951376

*** tstop() called on d1-14.compute.lan at Tue Mar  9 14:30:41 2021
Module time:
	user time   =     321.65 seconds =       5.36 minutes
	system time =      49.74 seconds =       0.83 minutes
	total time  =         62 seconds =       1.03 minutes
Total time:
	user time   =     389.24 seconds =       6.49 minutes
	system time =      53.78 seconds =       0.90 minutes
	total time  =         72 seconds =       1.20 minutes
            **************************
            *                        *
            *        CCENERGY        *
            *                        *
            **************************

    Nuclear Rep. energy (wfn)     =   21.837442754621570
    SCF energy          (wfn)     = -150.874690659512254
    Reference energy    (file100) = -150.874690659513760

    Input parameters:
    -----------------
    Wave function   =     CCSD_T
    Reference wfn   =     UHF
    Brueckner       =     No
    Memory (Mbytes) =     4000.0
    Maxiter         =     50
    R_Convergence   =     1.0e-10
    E_Convergence   =     1.0e-10
    Restart         =     Yes
    DIIS            =     Yes
    AO Basis        =     NONE
    ABCD            =     NEW
    Cache Level     =     2
    Cache Type      =     LRU
    Print Level     =     1
    Num. of threads =     12
    # Amps to Print =     10
    Print MP2 Amps? =     No
    Analyze T2 Amps =     No
    Print Pair Ener =     No
    Local CC        =     No
    SCS-MP2         =     False
    SCSN-MP2        =     False
    SCS-CCSD        =     False

MP2 correlation energy -0.4160407174326920
                Solving CC Amplitude Equations
                ------------------------------
  Iter             Energy              RMS        T1Diag      D1Diag    New D1Diag    D2Diag
  ----     ---------------------    ---------   ----------  ----------  ----------   --------
     0        -0.416040717432692    0.000e+00    0.000000    0.000000    0.000000    0.000000
     1        -0.426828747437090    5.660e-02    0.010442    0.000000    0.000000    0.000000
     2        -0.434908123977099    1.684e-02    0.010923    0.000000    0.000000    0.000000
     3        -0.437021838736151    8.464e-03    0.012756    0.000000    0.000000    0.000000
     4        -0.436896328581245    2.517e-03    0.013105    0.000000    0.000000    0.000000
     5        -0.436884987578782    1.270e-03    0.013249    0.000000    0.000000    0.000000
     6        -0.436910941816902    5.018e-04    0.013262    0.000000    0.000000    0.000000
     7        -0.436914958338846    2.248e-04    0.013251    0.000000    0.000000    0.000000
     8        -0.436915746331287    7.581e-05    0.013245    0.000000    0.000000    0.000000
     9        -0.436916960350388    4.507e-05    0.013245    0.000000    0.000000    0.000000
    10        -0.436915785217886    3.675e-05    0.013245    0.000000    0.000000    0.000000
    11        -0.436915886281048    3.534e-05    0.013245    0.000000    0.000000    0.000000
    12        -0.436915748408742    3.473e-05    0.013246    0.000000    0.000000    0.000000
    13        -0.436915659958797    3.428e-05    0.013247    0.000000    0.000000    0.000000
    14        -0.436916092658411    3.334e-05    0.013253    0.000000    0.000000    0.000000
    15        -0.436916136265274    3.088e-05    0.013267    0.000000    0.000000    0.000000
    16        -0.436916112119200    2.536e-05    0.013340    0.000000    0.000000    0.000000
    17        -0.436916087874215    1.468e-05    0.013390    0.000000    0.000000    0.000000
    18        -0.436916012599717    6.442e-06    0.013412    0.000000    0.000000    0.000000
    19        -0.436916164529190    2.861e-06    0.013417    0.000000    0.000000    0.000000
    20        -0.436916245947784    1.348e-06    0.013418    0.000000    0.000000    0.000000
    21        -0.436916251535393    5.645e-07    0.013418    0.000000    0.000000    0.000000
    22        -0.436916251835247    2.247e-07    0.013418    0.000000    0.000000    0.000000
    23        -0.436916252392152    9.582e-08    0.013418    0.000000    0.000000    0.000000
    24        -0.436916252278062    4.061e-08    0.013418    0.000000    0.000000    0.000000
    25        -0.436916252933053    2.138e-08    0.013418    0.000000    0.000000    0.000000
    26        -0.436916253310450    7.449e-09    0.013418    0.000000    0.000000    0.000000
    27        -0.436916253383348    2.639e-09    0.013418    0.000000    0.000000    0.000000
    28        -0.436916253407871    1.564e-09    0.013418    0.000000    0.000000    0.000000
    29        -0.436916253408088    1.262e-09    0.013418    0.000000    0.000000    0.000000
    30        -0.436916253398293    1.116e-09    0.013418    0.000000    0.000000    0.000000
    31        -0.436916253390102    1.043e-09    0.013418    0.000000    0.000000    0.000000
    32        -0.436916253384684    9.971e-10    0.013418    0.000000    0.000000    0.000000
    33        -0.436916253381623    9.201e-10    0.013418    0.000000    0.000000    0.000000
    34        -0.436916253382336    6.993e-10    0.013418    0.000000    0.000000    0.000000
    35        -0.436916253383801    3.664e-10    0.013418    0.000000    0.000000    0.000000
    36        -0.436916253384619    1.454e-10    0.013418    0.000000    0.000000    0.000000

      * MP2 total energy                      = -151.290731376946439
      * CCSD total energy                     = -151.311606912896906
      * CCSD(T) total energy                     = -151.323869997774295
*** Psi4 exiting successfully. Buy a developer a beer!
