                               Psi4 1.4a2.dev191

  ==> Input File <==

--------------------------------------------------------------------------
memory 10 GB
molecule {
0 3
O
H 1 R1
O 1 R2 2 A1
H 3 R1 1 A1 2 D1
R1 = 0.97
R2 = 100.0
A1 = 90.0
D1 = 180.0
}
set {
basis aug-cc-pvtz
e_convergence 10
g_convergence gau_verytight
reference uhf
scf_type pk
mp2_type conv
}

set ccenergy {
e_convergence 10
r_convergence 10
}

energy("ccsd(t)")

--------------------------------------------------------------------------

    Molecular point group: c2h

    Geometry (in Angstrom), charge = 0, multiplicity = 3:

       Center              X                  Y                   Z               Mass
    ------------   -----------------  -----------------  -----------------  -----------------
         O           50.000000000000     0.000000000000     0.000000000000    15.994914619570
         H           50.000000000000    -0.970000000000     0.000000000000     1.007825032230
         O          -50.000000000000     0.000000000000     0.000000000000    15.994914619570
         H          -50.000000000000     0.970000000000     0.000000000000     1.007825032230

  Charge       = 0
  Multiplicity = 3
  Basis Set: AUG-CC-PVTZ
    Blend: AUG-CC-PVTZ

    Orbital Energies [Eh]
    ---------------------

    Alpha Occupied:

       1Ag   -20.641117     1Bu   -20.641117     2Ag    -1.390072
       2Bu    -1.390072     3Ag    -0.682910     3Bu    -0.682910
       4Ag    -0.658618     4Bu    -0.658618     1Au    -0.561731
       1Bg    -0.561731

    Alpha Virtual:

       5Ag     0.029841     5Bu     0.029841     6Ag     0.136345
       6Bu     0.136345     7Ag     0.152776     7Bu     0.152776
       2Au     0.162104     2Bg     0.162104     8Ag     0.183944
       8Bu     0.183944     9Ag     0.262551     9Bu     0.262551
      10Ag     0.268653    10Bu     0.268653     3Au     0.275177
       3Bg     0.275177    11Ag     0.426291    11Bu     0.426291
      12Ag     0.629768    12Bu     0.629768     4Au     0.638691
       4Bg     0.638691    13Ag     0.649589    13Bu     0.649589
      14Ag     0.714419    14Bu     0.714419     5Au     0.729113
       5Bg     0.729113    15Ag     0.853753    15Bu     0.853753
      16Ag     0.875405    16Bu     0.875405     6Au     0.881053
       6Bg     0.881053    17Ag     0.926416    17Bu     0.926416
       7Au     0.937903     7Bg     0.937903    18Ag     0.938961
      18Bu     0.938961    19Ag     0.981201    19Bu     0.981201
      20Ag     0.999516    20Bu     0.999516     8Au     1.007827
       8Bg     1.007827    21Ag     1.496080    21Bu     1.496080
       9Au     1.515229     9Bg     1.515229    22Ag     1.696664
      22Bu     1.696664    23Ag     2.028431    23Bu     2.028431
      24Ag     2.043245    24Bu     2.043245    10Au     2.043265
      10Bg     2.043265    11Au     2.097665    11Bg     2.097665
      25Ag     2.098246    25Bu     2.098246    26Ag     2.251832
      26Bu     2.251832    12Au     2.288906    12Bg     2.288906
      27Ag     2.320237    27Bu     2.320237    13Au     2.321190
      13Bg     2.321190    28Ag     2.444975    28Bu     2.444975
      29Ag     2.486614    29Bu     2.486614    30Ag     2.727464
      30Bu     2.727464    14Au     2.765937    14Bg     2.765937
      31Ag     3.578155    31Bu     3.578155    32Ag     4.020968
      32Bu     4.020968    15Au     4.029903    15Bg     4.029903
      33Ag     4.030148    33Bu     4.030148    16Au     4.078167
      16Bg     4.078167    34Ag     4.298770    34Bu     4.298770
      17Au     4.311414    17Bg     4.311414    35Ag     4.637474
      35Bu     4.637474    36Ag     5.110336    36Bu     5.110336
      37Ag     5.254422    37Bu     5.254422    18Au     5.293155
      18Bg     5.293155    38Ag     6.133318    38Bu     6.133318
      39Ag     6.431632    39Bu     6.431632    19Au     6.431656
      19Bg     6.431656    20Au     6.593139    20Bg     6.593139
      40Ag     6.594837    40Bu     6.594837    41Ag     6.965562
      41Bu     6.965562    21Au     6.965648    21Bg     6.965648
      42Ag     7.129995    42Bu     7.129995    43Ag     7.164145
      43Bu     7.164145    22Au     7.180839    22Bg     7.180839
      23Au     7.227340    23Bg     7.227340    44Ag     7.368172
      44Bu     7.368172    45Ag     7.688589    45Bu     7.688589
      46Ag    12.898643    46Bu    12.898643

    Beta Occupied:

       1Ag   -20.601434     1Bu   -20.601434     2Ag    -1.231732
       2Bu    -1.231732     3Ag    -0.639011     3Bu    -0.639011
       1Au    -0.513666     1Bg    -0.513666

    Beta Virtual:

       4Ag     0.030992     4Bu     0.030992     5Ag     0.063338
       5Bu     0.063338     6Ag     0.138912     6Bu     0.138912
       2Au     0.164308     2Bg     0.164308     7Ag     0.188157
       7Bu     0.188157     8Ag     0.210245     8Bu     0.210245
       9Ag     0.265791     9Bu     0.265791     3Au     0.275089
       3Bg     0.275089    10Ag     0.289546    10Bu     0.289546
      11Ag     0.436586    11Bu     0.436586    12Ag     0.645187
      12Bu     0.645187     4Au     0.655343     4Bg     0.655343
      13Ag     0.656548    13Bu     0.656548     5Au     0.727302
       5Bg     0.727302    14Ag     0.731008    14Bu     0.731008
      15Ag     0.879778    15Bu     0.879778     6Au     0.887787
       6Bg     0.887787    16Ag     0.912915    16Bu     0.912915
      17Ag     0.937520    17Bu     0.937520     7Au     0.939952
       7Bg     0.939952    18Ag     0.941079    18Bu     0.941079
      19Ag     1.010188    19Bu     1.010188     8Au     1.015751
       8Bg     1.015751    20Ag     1.059731    20Bu     1.059731
       9Au     1.514835     9Bg     1.514835    21Ag     1.520172
      21Bu     1.520172    22Ag     1.715317    22Bu     1.715317
      23Ag     2.050705    23Bu     2.050705    10Au     2.062319
      10Bg     2.062319    24Ag     2.062322    24Bu     2.062322
      11Au     2.170664    11Bg     2.170664    25Ag     2.172297
      25Bu     2.172297    12Au     2.293303    12Bg     2.293303
      26Ag     2.298124    26Bu     2.298124    27Ag     2.337367
      27Bu     2.337367    13Au     2.337817    13Bg     2.337817
      28Ag     2.462112    28Bu     2.462112    29Ag     2.500234
      29Bu     2.500234    30Ag     2.770525    30Bu     2.770525
      14Au     2.772580    14Bg     2.772580    31Ag     3.583636
      31Bu     3.583636    15Au     4.032567    15Bg     4.032567
      32Ag     4.032596    32Bu     4.032596    16Au     4.096333
      16Bg     4.096333    33Ag     4.133631    33Bu     4.133631
      34Ag     4.303977    34Bu     4.303977    17Au     4.308119
      17Bg     4.308119    35Ag     4.647573    35Bu     4.647573
      36Ag     5.132988    36Bu     5.132988    37Ag     5.296027
      37Bu     5.296027    18Au     5.300478    18Bg     5.300478
      38Ag     6.157764    38Bu     6.157764    19Au     6.485978
      19Bg     6.485978    39Ag     6.485978    39Bu     6.485978
      20Au     6.633773    20Bg     6.633773    40Ag     6.633886
      40Bu     6.633886    21Au     7.057828    21Bg     7.057828
      41Ag     7.058048    41Bu     7.058048    42Ag     7.172693
      42Bu     7.172693    22Au     7.189480    22Bg     7.189480
      23Au     7.247644    23Bg     7.247644    43Ag     7.252827
      43Bu     7.252827    44Ag     7.385725    44Bu     7.385725
      45Ag     7.717645    45Bu     7.717645    46Ag    12.931726
      46Bu    12.931726

    Final Occupation by Irrep:
             Ag    Bg    Au    Bu
    DOCC [     3,    1,    1,    3 ]
    SOCC [     1,    0,    0,    1 ]

  @UHF Final Energy:  -150.84326610404608

   => Energetics <=

    Nuclear Repulsion Energy =              9.1573248206506968
    One-Electron Energy =                -226.1606019745927938
    Two-Electron Energy =                  66.1600110498960134
    Total Energy =                       -150.8432661040460800

  UHF NO Occupations:
  HONO-2 :    3 Ag 1.9978715
  HONO-1 :    4 Bu 1.0000000
  HONO-0 :    4 Ag 1.0000000
  LUNO+0 :    5 Bu 0.0021285
  LUNO+1 :    5 Ag 0.0021285
  LUNO+2 :    6 Bu 0.0007972
  LUNO+3 :    6 Ag 0.0007972

Computation Completed

Properties will be evaluated at   0.000000,   0.000000,   0.000000 [a0]

Properties computed using the SCF density matrix

  Nuclear Dipole Moment: [e a0]
     X:     0.0000      Y:     0.0000      Z:     0.0000

  Electronic Dipole Moment: [e a0]
     X:     0.0000      Y:     0.0000      Z:     0.0000

  Dipole Moment: [e a0]
     X:     0.0000      Y:     0.0000      Z:     0.0000     Total:     0.0000

  Dipole Moment: [D]
     X:     0.0000      Y:     0.0000      Z:     0.0000     Total:     0.0000

*** tstop() called on c1-1.compute.lan at Thu Mar  4 10:26:38 2021
Module time:
	user time   =       3.62 seconds =       0.06 minutes
	system time =       0.43 seconds =       0.01 minutes
	total time  =          4 seconds =       0.07 minutes
Total time:
	user time   =       3.62 seconds =       0.06 minutes
	system time =       0.43 seconds =       0.01 minutes
	total time  =          4 seconds =       0.07 minutes
 MINTS: Wrapper to libmints.
   by Justin Turney

   Calculation information:
      Number of threads:                 1
      Number of atoms:                   4
      Number of AO shells:              46
      Number of SO shells:              23
      Number of primitives:             82
      Number of atomic orbitals:       160
      Number of basis functions:       138

      Number of irreps:                  4
      Integral cutoff                 0.00e+00
      Number of functions per irrep: [  46   23   23   46 ]

 OEINTS: Overlap, kinetic, potential, dipole, and quadrupole integrals
         stored in file 35.

      Computing two-electron integrals...done
      Computed 10519514 non-zero two-electron integrals.
        Stored in file 33.

*** tstart() called on c1-1.compute.lan
*** at Thu Mar  4 10:26:40 2021

	Wfn Parameters:
	--------------------
	Wavefunction         = CCSD_T
	Number of irreps     = 4
	Number of MOs        = 138
	Number of active MOs = 138
	AO-Basis             = NONE
	Semicanonical        = false
	Reference            = UHF
	Print Level          = 1

	IRREP	# MOs	# FZDC	# DOCC	# SOCC	# VIRT	# FZVR
	-----	-----	------	------	------	------	------
	 Ag	   46	    0	    3	    1	    42	    0
	 Bg	   23	    0	    1	    0	    22	    0
	 Au	   23	    0	    1	    0	    22	    0
	 Bu	   46	    0	    3	    1	    42	    0
	Transforming integrals...
	IWL integrals will be deleted.
	(OO|OO)...
	Presorting SO-basis two-electron integrals.
	Sorting File: SO Ints (nn|nn) nbuckets = 1
	Transforming the one-electron integrals and constructing Fock matrices
	Starting AA/AB first half-transformation.
	Sorting AA/AB half-transformed integrals.
	Starting BB first half-transformation.
	Sorting BB half-transformed integrals.
	First half integral transformation complete.
	Starting AA second half-transformation.
	Starting AB second half-transformation.
	Starting BB second half-transformation.
	Two-electron integral transformation complete.
	(OO|OV)...
	Starting AA second half-transformation.
	Starting AB second half-transformation.
	Starting BB second half-transformation.
	Two-electron integral transformation complete.
	(OO|VV)...
	Starting AA second half-transformation.
	Starting AB second half-transformation.
	Starting BB second half-transformation.
	Two-electron integral transformation complete.
	(OV|OO)...
	Starting AA/AB first half-transformation.
	Sorting AA/AB half-transformed integrals.
	Starting BB first half-transformation.
	Sorting BB half-transformed integrals.
	First half integral transformation complete.
	Starting AA second half-transformation.
	Starting AB second half-transformation.
	Starting BB second half-transformation.
	Two-electron integral transformation complete.
	(OV|OV)...
	Starting AA second half-transformation.
	Starting AB second half-transformation.
	Starting BB second half-transformation.
	Two-electron integral transformation complete.
	(OV|VV)...
	Starting AA second half-transformation.
	Starting AB second half-transformation.
	Starting BB second half-transformation.
	Two-electron integral transformation complete.
	(VV|OO)...
	Starting AA/AB first half-transformation.
	Sorting AA/AB half-transformed integrals.
	Starting BB first half-transformation.
	Sorting BB half-transformed integrals.
	First half integral transformation complete.
	Starting AA second half-transformation.
	Starting AB second half-transformation.
	Starting BB second half-transformation.
	Two-electron integral transformation complete.
	(VV|OV)...
	Starting AA second half-transformation.
	Starting AB second half-transformation.
	Starting BB second half-transformation.
	Two-electron integral transformation complete.
	(VV|VV)...
	Starting AA second half-transformation.
	Starting AB second half-transformation.
	Starting BB second half-transformation.
	Two-electron integral transformation complete.
	Frozen core energy     =      0.00000000000000

	Size of irrep 0 of <AB|CD> integrals:      4.770 (MW) /     38.159 (MB)
	Size of irrep 1 of <AB|CD> integrals:      3.415 (MW) /     27.321 (MB)
	Size of irrep 2 of <AB|CD> integrals:      3.415 (MW) /     27.321 (MB)
	Size of irrep 3 of <AB|CD> integrals:      5.054 (MW) /     40.428 (MB)
	Total:                                    16.654 (MW) /    133.229 (MB)

	Size of irrep 0 of <ab|cd> integrals:      5.144 (MW) /     41.151 (MB)
	Size of irrep 1 of <ab|cd> integrals:      3.580 (MW) /     28.637 (MB)
	Size of irrep 2 of <ab|cd> integrals:      3.580 (MW) /     28.637 (MB)
	Size of irrep 3 of <ab|cd> integrals:      5.443 (MW) /     43.543 (MB)
	Total:                                    17.746 (MW) /    141.968 (MB)

	Size of irrep 0 of <Ab|Cd> integrals:     20.976 (MW) /    167.811 (MB)
	Size of irrep 1 of <Ab|Cd> integrals:     13.988 (MW) /    111.901 (MB)
	Size of irrep 2 of <Ab|Cd> integrals:     13.988 (MW) /    111.901 (MB)
	Size of irrep 3 of <Ab|Cd> integrals:     20.976 (MW) /    167.811 (MB)
	Total:                                    69.928 (MW) /    559.424 (MB)

	Size of irrep 0 of <IA|BC> integrals:      1.708 (MW) /     13.668 (MB)
	Size of irrep 1 of <IA|BC> integrals:      0.961 (MW) /      7.688 (MB)
	Size of irrep 2 of <IA|BC> integrals:      0.961 (MW) /      7.688 (MB)
	Size of irrep 3 of <IA|BC> integrals:      1.708 (MW) /     13.668 (MB)
	Total:                                     5.339 (MW) /     42.711 (MB)

	Size of irrep 0 of <ia|bc> integrals:      1.409 (MW) /     11.273 (MB)
	Size of irrep 1 of <ia|bc> integrals:      0.825 (MW) /      6.599 (MB)
	Size of irrep 2 of <ia|bc> integrals:      0.825 (MW) /      6.599 (MB)
	Size of irrep 3 of <ia|bc> integrals:      1.409 (MW) /     11.273 (MB)
	Total:                                     4.468 (MW) /     35.745 (MB)

	Size of irrep 0 of <Ia|Bc> integrals:      1.777 (MW) /     14.216 (MB)
	Size of irrep 1 of <Ia|Bc> integrals:      0.980 (MW) /      7.839 (MB)
	Size of irrep 2 of <Ia|Bc> integrals:      0.980 (MW) /      7.839 (MB)
	Size of irrep 3 of <Ia|Bc> integrals:      1.777 (MW) /     14.216 (MB)
	Total:                                     5.514 (MW) /     44.111 (MB)

	Size of irrep 0 of <iA|bC> integrals:      1.356 (MW) /     10.845 (MB)
	Size of irrep 1 of <iA|bC> integrals:      0.808 (MW) /      6.463 (MB)
	Size of irrep 2 of <iA|bC> integrals:      0.808 (MW) /      6.463 (MB)
	Size of irrep 3 of <iA|bC> integrals:      1.356 (MW) /     10.845 (MB)
	Total:                                     4.327 (MW) /     34.616 (MB)

	Size of irrep 0 of tIjAb amplitudes:       0.119 (MW) /      0.953 (MB)
	Size of irrep 1 of tIjAb amplitudes:       0.052 (MW) /      0.419 (MB)
	Size of irrep 2 of tIjAb amplitudes:       0.052 (MW) /      0.419 (MB)
	Size of irrep 3 of tIjAb amplitudes:       0.119 (MW) /      0.953 (MB)
	Total:                                     0.343 (MW) /      2.743 (MB)

	Nuclear Rep. energy          =      9.15732482065070
	SCF energy                   =   -150.84326610404608
	One-electron energy          =   -226.16060176534319
	Two-electron (AA) energy     =     15.62096512109537
	Two-electron (BB) energy     =      9.34825364661850
	Two-electron (AB) energy     =     41.19079207293240
	Two-electron energy          =     66.16001084064627
	Reference energy             =   -150.84326610404622

*** tstop() called on c1-1.compute.lan at Thu Mar  4 10:26:59 2021
Module time:
	user time   =       9.46 seconds =       0.16 minutes
	system time =       9.08 seconds =       0.15 minutes
	total time  =         19 seconds =       0.32 minutes
Total time:
	user time   =      15.38 seconds =       0.26 minutes
	system time =       9.67 seconds =       0.16 minutes
	total time  =         25 seconds =       0.42 minutes
            **************************
            *                        *
            *        CCENERGY        *
            *                        *
            **************************

    Nuclear Rep. energy (wfn)     =    9.157324820650697
    SCF energy          (wfn)     = -150.843266104046080
    Reference energy    (file100) = -150.843266104046222

    Input parameters:
    -----------------
    Wave function   =     CCSD_T
    Reference wfn   =     UHF
    Brueckner       =     No
    Memory (Mbytes) =     10000.0
    Maxiter         =     50
    R_Convergence   =     1.0e-10
    E_Convergence   =     1.0e-10
    Restart         =     Yes
    DIIS            =     Yes
    AO Basis        =     NONE
    ABCD            =     NEW
    Cache Level     =     2
    Cache Type      =     LRU
    Print Level     =     1
    Num. of threads =     1
    # Amps to Print =     10
    Print MP2 Amps? =     No
    Analyze T2 Amps =     No
    Print Pair Ener =     No
    Local CC        =     No
    SCS-MP2         =     False
    SCSN-MP2        =     False
    SCS-CCSD        =     False

MP2 correlation energy -0.4364107606587528
                Solving CC Amplitude Equations
                ------------------------------
  Iter             Energy              RMS        T1Diag      D1Diag    New D1Diag    D2Diag
  ----     ---------------------    ---------   ----------  ----------  ----------   --------
     0        -0.436410760658753    0.000e+00    0.000000    0.000000    0.000000    0.000000
     1        -0.452808983375944    5.386e-02    0.009165    0.000000    0.000000    0.000000
     2        -0.460999392716758    1.725e-02    0.010367    0.000000    0.000000    0.000000
     3        -0.463001270273436    8.664e-03    0.012074    0.000000    0.000000    0.000000
     4        -0.462826554466817    2.947e-03    0.012413    0.000000    0.000000    0.000000
     5        -0.462864585087426    1.301e-03    0.012488    0.000000    0.000000    0.000000
     6        -0.462900901308958    4.815e-04    0.012474    0.000000    0.000000    0.000000
     7        -0.462900626554651    1.509e-04    0.012459    0.000000    0.000000    0.000000
     8        -0.462901813245050    5.049e-05    0.012457    0.000000    0.000000    0.000000
     9        -0.462901607046332    1.703e-05    0.012457    0.000000    0.000000    0.000000
    10        -0.462901454911283    6.925e-06    0.012457    0.000000    0.000000    0.000000
    11        -0.462901617785267    2.713e-06    0.012457    0.000000    0.000000    0.000000
    12        -0.462901645931356    1.046e-06    0.012457    0.000000    0.000000    0.000000
    13        -0.462901677817464    4.084e-07    0.012457    0.000000    0.000000    0.000000
    14        -0.462901690178715    1.595e-07    0.012457    0.000000    0.000000    0.000000
    15        -0.462901690286756    6.490e-08    0.012457    0.000000    0.000000    0.000000
    16        -0.462901690374229    2.957e-08    0.012457    0.000000    0.000000    0.000000
    17        -0.462901690198831    1.386e-08    0.012457    0.000000    0.000000    0.000000
    18        -0.462901690453881    5.815e-09    0.012457    0.000000    0.000000    0.000000

      * MP2 total energy                      = -151.279676864704982
      * CCSD total energy                     = -151.306167794772136
      * CCSD(T) total energy                     = -151.318175108949220
*** Psi4 exiting successfully. Buy a developer a beer!
