                               Psi4 1.3.2 release

  ==> Input File <==

--------------------------------------------------------------------------
memory 4 GB

molecule  {
0 3
O    0.000000000000    0.000000000000   -1.548703289418
H    0.000000000000   -0.752326346800   -0.943289768844
H   -0.000000000000    0.752326346800   -0.943289768844
O    0.000000000000    0.000000000000    1.667574951356
}
set {
basis aug-cc-pvtz
reference uhf
e_convergence 10
scf_type pk
freeze_core true
}

set ccenergy {
e_convergence 10
r_convergence 10
}

e = energy('ccsd(t)')

print_out('Stephenergy {}'.format(e))

--------------------------------------------------------------------------

    Molecular point group: c2v

    Geometry (in Angstrom), charge = 0, multiplicity = 3:

       Center              X                  Y                   Z               Mass
    ------------   -----------------  -----------------  -----------------  -----------------
         O           -0.000000000000     0.000000000000    -1.548703289418    15.994914619570
         H            0.000000000000    -0.752326346800    -0.943289768844     1.007825032230
         H           -0.000000000000     0.752326346800    -0.943289768844     1.007825032230
         O           -0.000000000000     0.000000000000     1.667574951356    15.994914619570

  Charge       = 0
  Multiplicity = 3
  Basis Set: AUG-CC-PVTZ
    Blend: AUG-CC-PVTZ

    Orbital Energies [Eh]
    ---------------------

    Alpha Occupied:

       1A1   -20.731129     2A1   -20.562620     3A1    -1.440521
       4A1    -1.344336     1B2    -0.731964     1B1    -0.731342
       2B2    -0.702656     5A1    -0.636491     6A1    -0.578780
       2B1    -0.504033

    Alpha Virtual:

       7A1     0.035787     3B2     0.048612     3B1     0.131482
       8A1     0.132898     9A1     0.150490     4B2     0.158790
       4B1     0.183761     5B2     0.185524    10A1     0.190357
      11A1     0.258089     6B2     0.260859     1A2     0.266005
      12A1     0.274675     5B1     0.323076    13A1     0.376360
       7B2     0.384485    14A1     0.453851     8B2     0.473030
       2A2     0.610357    15A1     0.623996     9B2     0.624042
      16A1     0.631324     6B1     0.646322    17A1     0.717143
       3A2     0.731930    10B2     0.743792     7B1     0.752667
      18A1     0.793262     8B1     0.832738    11B2     0.850305
      19A1     0.850750     9B1     0.918480     4A2     0.941002
      12B2     0.942557    20A1     0.957385    21A1     0.964632
      10B1     0.982028    13B2     0.989856    22A1     1.053144
      14B2     1.057066    11B1     1.144101     5A2     1.190167
      23A1     1.195188    24A1     1.255230    15B2     1.272715
      16B2     1.302174    25A1     1.392272     6A2     1.509069
      12B1     1.586349    26A1     1.697133    27A1     1.836088
      17B2     1.842214    18B2     1.965459    13B1     1.976974
      19B2     1.999995    28A1     2.005301     7A2     2.015666
      14B1     2.032763    29A1     2.040696     8A2     2.056193
      30A1     2.092426    20B2     2.100197    15B1     2.139134
      31A1     2.181718    16B1     2.294400    21B2     2.304448
       9A2     2.336473    32A1     2.386544    33A1     2.400253
      34A1     2.485374    22B2     2.512006    17B1     2.536005
      35A1     2.589037    23B2     2.695470    18B1     2.724084
      36A1     2.830748    10A2     2.888837    24B2     2.907829
      25B2     3.666602    37A1     3.740643    11A2     4.038272
      19B1     4.052402    26B2     4.104126    20B1     4.105422
      38A1     4.191028    21B1     4.269845    27B2     4.276634
      39A1     4.333341    12A2     4.383804    22B1     4.417457
      40A1     4.468116    28B2     4.535198    41A1     4.757242
      29B2     4.850744    13A2     5.137708    30B2     5.172316
      31B2     5.235995    42A1     5.360502    23B1     5.520818
      43A1     5.662150    44A1     6.204541    24B1     6.313352
      32B2     6.315129    14A2     6.378511    45A1     6.388042
      25B1     6.411696    33B2     6.479262    46A1     6.501419
      34B2     6.535564    26B1     6.756341    15A2     6.820515
      47A1     6.822423    48A1     6.934139    27B1     6.937005
      35B2     6.972366    49A1     7.037705    28B1     7.133574
      29B1     7.261253    16A2     7.312378    36B2     7.337122
      17A2     7.357292    50A1     7.376195    51A1     7.545794
      52A1     7.884127    37B2     7.934936    53A1     8.670795
      38B2     8.801229    54A1    15.629735

    Beta Occupied:

       1A1   -20.652605     2A1   -20.562680     3A1    -1.344652
       4A1    -1.098355     1B2    -0.702912     5A1    -0.587009
       6A1    -0.539032     1B1    -0.503997

    Beta Virtual:

       2B2     0.033909     7A1     0.037000     2B1     0.048330
       3B2     0.069530     8A1     0.138727     9A1     0.152994
       3B1     0.161086     4B2     0.180097    10A1     0.190736
       5B2     0.224737     4B1     0.225753     6B2     0.264287
       1A2     0.266481    11A1     0.266851    12A1     0.277234
       5B1     0.324321    13A1     0.379882     7B2     0.391457
      14A1     0.455338     8B2     0.473514     9B2     0.625861
      15A1     0.633371     2A2     0.642354    16A1     0.656543
       6B1     0.657344    17A1     0.718232     3A2     0.733189
       7B1     0.756008    10B2     0.756261    18A1     0.807360
      19A1     0.856511     8B1     0.910947     9B1     0.935818
      11B2     0.940424     4A2     0.943164    12B2     0.949959
      20A1     0.960140    21A1     0.969215    13B2     1.023959
      10B1     1.033118    22A1     1.054353    14B2     1.063129
      11B1     1.153800     5A2     1.191102    23A1     1.199227
      15B2     1.272910    24A1     1.294036    16B2     1.320032
      25A1     1.424001     6A2     1.509308    12B1     1.586609
      26A1     1.714781    27A1     1.838424    17B2     1.843459
      18B2     1.976127    13B1     2.014684    19B2     2.027516
      28A1     2.030005    14B1     2.056966     7A2     2.058438
      29A1     2.101428    20B2     2.152554    30A1     2.180711
       8A2     2.184626    15B1     2.200733    31A1     2.222938
      16B1     2.302107     9A2     2.340867    21B2     2.340879
      32A1     2.390822    33A1     2.423273    34A1     2.487170
      22B2     2.518985    17B1     2.540936    35A1     2.591832
      23B2     2.695832    18B1     2.724234    36A1     2.831454
      10A2     2.888891    24B2     2.909666    25B2     3.666839
      37A1     3.740831    11A2     4.038404    19B1     4.102082
      38A1     4.201203    20B1     4.226906    26B2     4.255812
      21B1     4.270314    27B2     4.293122    39A1     4.346898
      12A2     4.383872    22B1     4.418018    40A1     4.491770
      28B2     4.536121    41A1     4.757879    29B2     4.851133
      13A2     5.137747    30B2     5.172341    31B2     5.236089
      42A1     5.360974    23B1     5.520821    43A1     5.662473
      44A1     6.208497    24B1     6.422090    32B2     6.423613
      14A2     6.455047    45A1     6.461543    25B1     6.466108
      33B2     6.506263    46A1     6.548490    34B2     6.565265
      26B1     6.763819    47A1     6.936138    15A2     7.009235
      48A1     7.012471    27B1     7.042828    35B2     7.081150
      49A1     7.115706    28B1     7.134626    29B1     7.261254
      16A2     7.312412    36B2     7.338489    17A2     7.357421
      50A1     7.377517    51A1     7.547225    52A1     7.884310
      37B2     7.934925    53A1     8.753471    38B2     8.801125
      54A1    15.629736

    Final Occupation by Irrep:
             A1    A2    B1    B2
    DOCC [     6,    0,    1,    1 ]
    SOCC [     0,    0,    1,    1 ]

  @UHF Final Energy:  -150.87259598676582

   => Energetics <=

    Nuclear Repulsion Energy =             22.7656331094775624
    One-Electron Energy =                -253.3213447103071303
    Two-Electron Energy =                  79.6831156140637660
    Total Energy =                       -150.8725959867658162

  UHF NO Occupations:
  HONO-2 :    6 A1 1.9970786
  HONO-1 :    2 B2 1.0000000
  HONO-0 :    2 B1 1.0000000
  LUNO+0 :    7 A1 0.0029214
  LUNO+1 :    8 A1 0.0016511
  LUNO+2 :    9 A1 0.0000024
  LUNO+3 :   10 A1 0.0000010

Computation Completed

Properties will be evaluated at   0.000000,   0.000000,   0.000000 [a0]

Properties computed using the SCF density matrix

  Nuclear Dipole Moment: [e a0]
     X:    -0.0000      Y:     0.0000      Z:    -1.7680

  Electronic Dipole Moment: [e a0]
     X:     0.0000      Y:     0.0000      Z:     2.6188

  Dipole Moment: [e a0]
     X:    -0.0000      Y:     0.0000      Z:     0.8508     Total:     0.8508

  Dipole Moment: [D]
     X:    -0.0000      Y:     0.0000      Z:     2.1625     Total:     2.1625

*** tstop() called on c1-9.compute.lan at Wed Mar 10 09:34:31 2021
Module time:
	user time   =      48.69 seconds =       0.81 minutes
	system time =       3.32 seconds =       0.06 minutes
	total time  =          6 seconds =       0.10 minutes
Total time:
	user time   =      48.69 seconds =       0.81 minutes
	system time =       3.32 seconds =       0.06 minutes
	total time  =          6 seconds =       0.10 minutes
 MINTS: Wrapper to libmints.
   by Justin Turney

   Calculation information:
      Number of threads:                12
      Number of atoms:                   4
      Number of AO shells:              46
      Number of SO shells:              37
      Number of primitives:             82
      Number of atomic orbitals:       160
      Number of basis functions:       138

      Number of irreps:                  4
      Integral cutoff                 0.00e+00
      Number of functions per irrep: [  54   17   29   38 ]

 OEINTS: Overlap, kinetic, potential, dipole, and quadrupole integrals
         stored in file 35.

      Computing two-electron integrals...done
      Computed 11521804 non-zero two-electron integrals.
        Stored in file 33.

*** tstart() called on c1-9.compute.lan
*** at Wed Mar 10 09:34:34 2021

	Wfn Parameters:
	--------------------
	Wavefunction         = CCSD_T
	Number of irreps     = 4
	Number of MOs        = 138
	Number of active MOs = 136
	AO-Basis             = NONE
	Semicanonical        = false
	Reference            = UHF
	Print Level          = 1

	IRREP	# MOs	# FZDC	# DOCC	# SOCC	# VIRT	# FZVR
	-----	-----	------	------	------	------	------
	 A1	   54	    2	    4	    0	    48	    0
	 A2	   17	    0	    0	    0	    17	    0
	 B1	   29	    0	    1	    1	    27	    0
	 B2	   38	    0	    1	    1	    36	    0
	Transforming integrals...
	IWL integrals will be deleted.
	(OO|OO)...
	Presorting SO-basis two-electron integrals.
	Sorting File: SO Ints (nn|nn) nbuckets = 1
	Transforming the one-electron integrals and constructing Fock matrices
	Starting AA/AB first half-transformation.
	Sorting AA/AB half-transformed integrals.
	Starting BB first half-transformation.
	Sorting BB half-transformed integrals.
	First half integral transformation complete.
	Starting AA second half-transformation.
	Starting AB second half-transformation.
	Starting BB second half-transformation.
	Two-electron integral transformation complete.
	(OO|OV)...
	Starting AA second half-transformation.
	Starting AB second half-transformation.
	Starting BB second half-transformation.
	Two-electron integral transformation complete.
	(OO|VV)...
	Starting AA second half-transformation.
	Starting AB second half-transformation.
	Starting BB second half-transformation.
	Two-electron integral transformation complete.
	(OV|OO)...
	Starting AA/AB first half-transformation.
	Sorting AA/AB half-transformed integrals.
	Starting BB first half-transformation.
	Sorting BB half-transformed integrals.
	First half integral transformation complete.
	Starting AA second half-transformation.
	Starting AB second half-transformation.
	Starting BB second half-transformation.
	Two-electron integral transformation complete.
	(OV|OV)...
	Starting AA second half-transformation.
	Starting AB second half-transformation.
	Starting BB second half-transformation.
	Two-electron integral transformation complete.
	(OV|VV)...
	Starting AA second half-transformation.
	Starting AB second half-transformation.
	Starting BB second half-transformation.
	Two-electron integral transformation complete.
	(VV|OO)...
	Starting AA/AB first half-transformation.
	Sorting AA/AB half-transformed integrals.
	Starting BB first half-transformation.
	Sorting BB half-transformed integrals.
	First half integral transformation complete.
	Starting AA second half-transformation.
	Starting AB second half-transformation.
	Starting BB second half-transformation.
	Two-electron integral transformation complete.
	(VV|OV)...
	Starting AA second half-transformation.
	Starting AB second half-transformation.
	Starting BB second half-transformation.
	Two-electron integral transformation complete.
	(VV|VV)...
	Starting AA second half-transformation.
	Starting AB second half-transformation.
	Starting BB second half-transformation.
	Two-electron integral transformation complete.
	Frozen core energy     =   -125.78888784206784

	Size of irrep 0 of <AB|CD> integrals:      5.040 (MW) /     40.320 (MB)
	Size of irrep 1 of <AB|CD> integrals:      3.197 (MW) /     25.576 (MB)
	Size of irrep 2 of <AB|CD> integrals:      3.640 (MW) /     29.124 (MB)
	Size of irrep 3 of <AB|CD> integrals:      4.783 (MW) /     38.264 (MB)
	Total:                                    16.660 (MW) /    133.283 (MB)

	Size of irrep 0 of <ab|cd> integrals:      5.327 (MW) /     42.615 (MB)
	Size of irrep 1 of <ab|cd> integrals:      3.430 (MW) /     27.439 (MB)
	Size of irrep 2 of <ab|cd> integrals:      3.893 (MW) /     31.142 (MB)
	Size of irrep 3 of <ab|cd> integrals:      5.072 (MW) /     40.572 (MB)
	Total:                                    17.721 (MW) /    141.768 (MB)

	Size of irrep 0 of <Ab|Cd> integrals:     21.912 (MW) /    175.294 (MB)
	Size of irrep 1 of <Ab|Cd> integrals:     13.242 (MW) /    105.939 (MB)
	Size of irrep 2 of <Ab|Cd> integrals:     15.062 (MW) /    120.497 (MB)
	Size of irrep 3 of <Ab|Cd> integrals:     19.705 (MW) /    157.638 (MB)
	Total:                                    69.921 (MW) /    559.368 (MB)

	Size of irrep 0 of <IA|BC> integrals:      1.469 (MW) /     11.748 (MB)
	Size of irrep 1 of <IA|BC> integrals:      0.694 (MW) /      5.550 (MB)
	Size of irrep 2 of <IA|BC> integrals:      0.908 (MW) /      7.266 (MB)
	Size of irrep 3 of <IA|BC> integrals:      1.198 (MW) /      9.588 (MB)
	Total:                                     4.269 (MW) /     34.152 (MB)

	Size of irrep 0 of <ia|bc> integrals:      1.220 (MW) /      9.758 (MB)
	Size of irrep 1 of <ia|bc> integrals:      0.493 (MW) /      3.941 (MB)
	Size of irrep 2 of <ia|bc> integrals:      0.698 (MW) /      5.588 (MB)
	Size of irrep 3 of <ia|bc> integrals:      0.959 (MW) /      7.675 (MB)
	Total:                                     3.370 (MW) /     26.961 (MB)

	Size of irrep 0 of <Ia|Bc> integrals:      1.507 (MW) /     12.058 (MB)
	Size of irrep 1 of <Ia|Bc> integrals:      0.721 (MW) /      5.764 (MB)
	Size of irrep 2 of <Ia|Bc> integrals:      0.939 (MW) /      7.514 (MB)
	Size of irrep 3 of <Ia|Bc> integrals:      1.234 (MW) /      9.872 (MB)
	Total:                                     4.401 (MW) /     35.208 (MB)

	Size of irrep 0 of <iA|bC> integrals:      1.194 (MW) /      9.549 (MB)
	Size of irrep 1 of <iA|bC> integrals:      0.477 (MW) /      3.814 (MB)
	Size of irrep 2 of <iA|bC> integrals:      0.671 (MW) /      5.371 (MB)
	Size of irrep 3 of <iA|bC> integrals:      0.928 (MW) /      7.422 (MB)
	Total:                                     3.270 (MW) /     26.156 (MB)

	Size of irrep 0 of tIjAb amplitudes:       0.094 (MW) /      0.749 (MB)
	Size of irrep 1 of tIjAb amplitudes:       0.015 (MW) /      0.116 (MB)
	Size of irrep 2 of tIjAb amplitudes:       0.047 (MW) /      0.373 (MB)
	Size of irrep 3 of tIjAb amplitudes:       0.053 (MW) /      0.426 (MB)
	Total:                                     0.208 (MW) /      1.664 (MB)

	Nuclear Rep. energy          =     22.76563310947756
	SCF energy                   =   -150.87259598676582
	One-electron energy          =    -84.25260263175740
	Two-electron (AA) energy     =     10.11408068916842
	Two-electron (BB) energy     =      5.37872531312186
	Two-electron (AB) energy     =     20.91045537529019
	Two-electron energy          =     36.40326137758048
	Reference energy             =   -150.87259598676718

*** tstop() called on c1-9.compute.lan at Wed Mar 10 09:35:06 2021
Module time:
	user time   =     129.95 seconds =       2.17 minutes
	system time =      20.67 seconds =       0.34 minutes
	total time  =         32 seconds =       0.53 minutes
Total time:
	user time   =     183.93 seconds =       3.07 minutes
	system time =      24.52 seconds =       0.41 minutes
	total time  =         41 seconds =       0.68 minutes
            **************************
            *                        *
            *        CCENERGY        *
            *                        *
            **************************

    Nuclear Rep. energy (wfn)     =   22.765633109477562
    SCF energy          (wfn)     = -150.872595986765816
    Reference energy    (file100) = -150.872595986767180

    Input parameters:
    -----------------
    Wave function   =     CCSD_T
    Reference wfn   =     UHF
    Brueckner       =     No
    Memory (Mbytes) =     4000.0
    Maxiter         =     50
    R_Convergence   =     1.0e-10
    E_Convergence   =     1.0e-10
    Restart         =     Yes
    DIIS            =     Yes
    AO Basis        =     NONE
    ABCD            =     NEW
    Cache Level     =     2
    Cache Type      =     LRU
    Print Level     =     1
    Num. of threads =     12
    # Amps to Print =     10
    Print MP2 Amps? =     No
    Analyze T2 Amps =     No
    Print Pair Ener =     No
    Local CC        =     No
    SCS-MP2         =     False
    SCSN-MP2        =     False
    SCS-CCSD        =     False

MP2 correlation energy -0.4164360584586789
                Solving CC Amplitude Equations
                ------------------------------
  Iter             Energy              RMS        T1Diag      D1Diag    New D1Diag    D2Diag
  ----     ---------------------    ---------   ----------  ----------  ----------   --------
     0        -0.416436058458679    0.000e+00    0.000000    0.000000    0.000000    0.000000
     1        -0.427189420611317    5.676e-02    0.010460    0.000000    0.000000    0.000000
     2        -0.435343775006397    1.690e-02    0.010976    0.000000    0.000000    0.000000
     3        -0.437454440911771    8.522e-03    0.012830    0.000000    0.000000    0.000000
     4        -0.437330087155595    2.505e-03    0.013188    0.000000    0.000000    0.000000
     5        -0.437315192800642    1.303e-03    0.013342    0.000000    0.000000    0.000000
     6        -0.437341367918747    5.084e-04    0.013364    0.000000    0.000000    0.000000
     7        -0.437346059868834    2.546e-04    0.013358    0.000000    0.000000    0.000000
     8        -0.437346684084595    7.573e-05    0.013353    0.000000    0.000000    0.000000
     9        -0.437348001834380    3.740e-05    0.013354    0.000000    0.000000    0.000000
    10        -0.437346601509505    1.710e-05    0.013354    0.000000    0.000000    0.000000
    11        -0.437346714522658    9.715e-06    0.013354    0.000000    0.000000    0.000000
    12        -0.437346665243869    4.635e-06    0.013355    0.000000    0.000000    0.000000
    13        -0.437346689864517    1.998e-06    0.013355    0.000000    0.000000    0.000000
    14        -0.437346743201920    7.930e-07    0.013355    0.000000    0.000000    0.000000
    15        -0.437346745538574    2.022e-07    0.013355    0.000000    0.000000    0.000000
    16        -0.437346745969405    1.150e-07    0.013355    0.000000    0.000000    0.000000
    17        -0.437346747030562    3.410e-08    0.013355    0.000000    0.000000    0.000000
    18        -0.437346746540818    1.536e-08    0.013355    0.000000    0.000000    0.000000

      * MP2 total energy                      = -151.289032045225866
      * CCSD total energy                     = -151.309942733161478
      * CCSD(T) total energy                     = -151.322259686595430
*** Psi4 exiting successfully. Buy a developer a beer!
