                               Psi4 1.3.2 release

  ==> Input File <==

--------------------------------------------------------------------------
memory 4 GB

molecule  {
0 3
O    0.000000000000    0.000000000000   -1.646778481826
H    0.000000000000   -0.752441946368   -1.050428662426
H   -0.000000000000    0.752441946368   -1.050428662426
O    0.000000000000    0.000000000000    1.779151592374
}
set {
basis aug-cc-pvtz
reference uhf
e_convergence 10
scf_type pk
freeze_core true
}

set ccenergy {
e_convergence 10
r_convergence 10
}

e = energy('ccsd(t)')

print_out('Stephenergy {}'.format(e))

--------------------------------------------------------------------------

    Molecular point group: c2v

    Geometry (in Angstrom), charge = 0, multiplicity = 3:

       Center              X                  Y                   Z               Mass
    ------------   -----------------  -----------------  -----------------  -----------------
         O            0.000000000000     0.000000000000    -1.646778481826    15.994914619570
         H            0.000000000000    -0.752441946368    -1.050428662426     1.007825032230
         H           -0.000000000000     0.752441946368    -1.050428662426     1.007825032230
         O            0.000000000000     0.000000000000     1.779151592374    15.994914619570

  Charge       = 0
  Multiplicity = 3
  Basis Set: AUG-CC-PVTZ
    Blend: AUG-CC-PVTZ

    Orbital Energies [Eh]
    ---------------------

    Alpha Occupied:

       1A1   -20.728993     2A1   -20.562810     3A1    -1.437974
       4A1    -1.347866     1B2    -0.729383     1B1    -0.728999
       2B2    -0.708644     5A1    -0.632319     6A1    -0.580731
       2B1    -0.505518

    Alpha Virtual:

       7A1     0.035509     3B2     0.048559     3B1     0.132063
       8A1     0.134718     9A1     0.148082     4B2     0.158014
       4B1     0.181099     5B2     0.185011    10A1     0.189309
      11A1     0.250314     6B2     0.257646     1A2     0.266138
      12A1     0.273476     5B1     0.319687    13A1     0.367618
       7B2     0.382464    14A1     0.454598     8B2     0.472072
       2A2     0.609090     9B2     0.615895    15A1     0.618588
      16A1     0.619582     6B1     0.640621    17A1     0.717881
       3A2     0.731152    10B2     0.735961     7B1     0.741914
      18A1     0.800430    19A1     0.838275     8B1     0.840796
      11B2     0.854143     9B1     0.915190    20A1     0.925295
       4A2     0.934307    12B2     0.942100    21A1     0.958559
      10B1     0.960811    13B2     0.962257    22A1     1.049567
      14B2     1.054698    11B1     1.123246     5A2     1.186275
      23A1     1.187333    15B2     1.255467    24A1     1.262172
      16B2     1.274686    25A1     1.345976     6A2     1.512031
      12B1     1.592218    26A1     1.630857    27A1     1.827830
      17B2     1.832049    18B2     1.972835    13B1     1.978564
      19B2     1.990279    28A1     2.005367     7A2     2.011060
      14B1     2.026122    29A1     2.036318     8A2     2.039749
      20B2     2.081528    30A1     2.086935    15B1     2.119737
      31A1     2.146446    21B2     2.260909    16B1     2.279006
       9A2     2.329693    32A1     2.337064    33A1     2.402343
      34A1     2.488908    22B2     2.492101    17B1     2.506262
      35A1     2.575667    23B2     2.687945    18B1     2.718421
      36A1     2.822471    10A2     2.889687    24B2     2.900783
      25B2     3.669806    37A1     3.754481    11A2     4.033250
      19B1     4.050695    26B2     4.084675    20B1     4.103091
      38A1     4.147794    27B2     4.280687    21B1     4.282060
      39A1     4.365267    12A2     4.383915    40A1     4.405320
      22B1     4.417978    28B2     4.532646    41A1     4.751833
      29B2     4.857984    13A2     5.153469    30B2     5.169462
      31B2     5.252585    42A1     5.375537    23B1     5.533350
      43A1     5.675378    44A1     6.203688    24B1     6.315121
      32B2     6.315958    14A2     6.370014    45A1     6.375214
      25B1     6.402021    33B2     6.450191    46A1     6.480426
      34B2     6.526966    26B1     6.737892    15A2     6.819103
      47A1     6.820556    27B1     6.927475    48A1     6.935069
      35B2     6.956815    49A1     7.033433    28B1     7.137228
      29B1     7.262218    16A2     7.321922    36B2     7.344583
      17A2     7.358553    50A1     7.359455    51A1     7.551275
      52A1     7.899993    37B2     7.943477    53A1     8.530610
      38B2     8.822186    54A1    15.774972

    Beta Occupied:

       1A1   -20.650427     2A1   -20.562848     3A1    -1.348039
       4A1    -1.095672     1B2    -0.708785     5A1    -0.584816
       6A1    -0.538606     1B1    -0.505508

    Beta Virtual:

       2B2     0.035389     7A1     0.036629     2B1     0.049866
       3B2     0.069575     8A1     0.140879     9A1     0.150666
       3B1     0.160363     4B2     0.180885    10A1     0.189627
       5B2     0.221956     4B1     0.225282    11A1     0.259335
       6B2     0.263183     1A2     0.266453    12A1     0.274896
       5B1     0.320332    13A1     0.371004     7B2     0.387529
      14A1     0.455729     8B2     0.472596     9B2     0.618343
      15A1     0.621056     2A2     0.641323    16A1     0.651266
       6B1     0.652730    17A1     0.719220     3A2     0.732576
       7B1     0.743899    10B2     0.747383    18A1     0.808984
      19A1     0.851286     8B1     0.911830    20A1     0.930648
       9B1     0.930781     4A2     0.935700    11B2     0.940336
      12B2     0.944761    21A1     0.959497    13B2     1.009674
      10B1     1.025011    22A1     1.050151    14B2     1.057464
      11B1     1.128301     5A2     1.186982    23A1     1.191436
      15B2     1.268612    16B2     1.278277    24A1     1.280987
      25A1     1.403353     6A2     1.512137    12B1     1.592321
      26A1     1.643567    27A1     1.828954    17B2     1.833320
      18B2     1.980598    13B1     2.016660    19B2     2.021448
      28A1     2.030695     7A2     2.041532    14B1     2.046367
      29A1     2.100991    20B2     2.125423    30A1     2.155527
       8A2     2.182368    15B1     2.189046    31A1     2.195423
      16B1     2.283189    21B2     2.306760     9A2     2.332623
      32A1     2.357805    33A1     2.413393    34A1     2.492985
      22B2     2.496718    17B1     2.510928    35A1     2.578696
      23B2     2.688107    18B1     2.718512    36A1     2.822783
      10A2     2.889710    24B2     2.902817    25B2     3.669846
      37A1     3.754630    11A2     4.033336    19B1     4.102432
      38A1     4.162273    20B1     4.223520    26B2     4.242222
      21B1     4.282083    27B2     4.293353    12A2     4.383962
      39A1     4.388575    40A1     4.415045    22B1     4.418153
      28B2     4.532843    41A1     4.751978    29B2     4.858074
      13A2     5.153486    30B2     5.169468    31B2     5.252607
      42A1     5.375993    23B1     5.533354    43A1     5.675712
      44A1     6.205421    24B1     6.423970    32B2     6.424659
      14A2     6.446675    45A1     6.450244    25B1     6.457310
      33B2     6.494492    46A1     6.529213    34B2     6.539304
      26B1     6.744346    47A1     6.935218    15A2     7.008128
      48A1     7.009975    27B1     7.034862    35B2     7.065894
      49A1     7.114299    28B1     7.137494    29B1     7.262175
      16A2     7.321969    36B2     7.346631    17A2     7.358607
      50A1     7.360119    51A1     7.551954    52A1     7.900235
      37B2     7.943460    53A1     8.615710    38B2     8.822126
      54A1    15.774967

    Final Occupation by Irrep:
             A1    A2    B1    B2
    DOCC [     6,    0,    1,    1 ]
    SOCC [     0,    0,    1,    1 ]

  @UHF Final Energy:  -150.87369552947925

   => Energetics <=

    Nuclear Repulsion Energy =             21.9476456325468341
    One-Electron Energy =                -251.6847473554684029
    Two-Electron Energy =                  78.8634061934423158
    Total Energy =                       -150.8736955294792779

  UHF NO Occupations:
  HONO-2 :    6 A1 1.9970741
  HONO-1 :    2 B2 1.0000000
  HONO-0 :    2 B1 1.0000000
  LUNO+0 :    7 A1 0.0029259
  LUNO+1 :    8 A1 0.0016875
  LUNO+2 :    9 A1 0.0000024
  LUNO+3 :   10 A1 0.0000004

Computation Completed

Properties will be evaluated at   0.000000,   0.000000,   0.000000 [a0]

Properties computed using the SCF density matrix

  Nuclear Dipole Moment: [e a0]
     X:     0.0000      Y:     0.0000      Z:    -1.9689

  Electronic Dipole Moment: [e a0]
     X:     0.0000      Y:     0.0000      Z:     2.8025

  Dipole Moment: [e a0]
     X:     0.0000      Y:     0.0000      Z:     0.8336     Total:     0.8336

  Dipole Moment: [D]
     X:     0.0000      Y:     0.0000      Z:     2.1189     Total:     2.1189

*** tstop() called on c4-16.compute.lan at Wed Mar 10 09:47:06 2021
Module time:
	user time   =      53.94 seconds =       0.90 minutes
	system time =       1.91 seconds =       0.03 minutes
	total time  =          6 seconds =       0.10 minutes
Total time:
	user time   =      53.94 seconds =       0.90 minutes
	system time =       1.91 seconds =       0.03 minutes
	total time  =          6 seconds =       0.10 minutes
 MINTS: Wrapper to libmints.
   by Justin Turney

   Calculation information:
      Number of threads:                12
      Number of atoms:                   4
      Number of AO shells:              46
      Number of SO shells:              37
      Number of primitives:             82
      Number of atomic orbitals:       160
      Number of basis functions:       138

      Number of irreps:                  4
      Integral cutoff                 0.00e+00
      Number of functions per irrep: [  54   17   29   38 ]

 OEINTS: Overlap, kinetic, potential, dipole, and quadrupole integrals
         stored in file 35.

      Computing two-electron integrals...done
      Computed 11529266 non-zero two-electron integrals.
        Stored in file 33.

*** tstart() called on c4-16.compute.lan
*** at Wed Mar 10 09:47:08 2021

	Wfn Parameters:
	--------------------
	Wavefunction         = CCSD_T
	Number of irreps     = 4
	Number of MOs        = 138
	Number of active MOs = 136
	AO-Basis             = NONE
	Semicanonical        = false
	Reference            = UHF
	Print Level          = 1

	IRREP	# MOs	# FZDC	# DOCC	# SOCC	# VIRT	# FZVR
	-----	-----	------	------	------	------	------
	 A1	   54	    2	    4	    0	    48	    0
	 A2	   17	    0	    0	    0	    17	    0
	 B1	   29	    0	    1	    1	    27	    0
	 B2	   38	    0	    1	    1	    36	    0
	Transforming integrals...
	IWL integrals will be deleted.
	(OO|OO)...
	Presorting SO-basis two-electron integrals.
	Sorting File: SO Ints (nn|nn) nbuckets = 1
	Transforming the one-electron integrals and constructing Fock matrices
	Starting AA/AB first half-transformation.
	Sorting AA/AB half-transformed integrals.
	Starting BB first half-transformation.
	Sorting BB half-transformed integrals.
	First half integral transformation complete.
	Starting AA second half-transformation.
	Starting AB second half-transformation.
	Starting BB second half-transformation.
	Two-electron integral transformation complete.
	(OO|OV)...
	Starting AA second half-transformation.
	Starting AB second half-transformation.
	Starting BB second half-transformation.
	Two-electron integral transformation complete.
	(OO|VV)...
	Starting AA second half-transformation.
	Starting AB second half-transformation.
	Starting BB second half-transformation.
	Two-electron integral transformation complete.
	(OV|OO)...
	Starting AA/AB first half-transformation.
	Sorting AA/AB half-transformed integrals.
	Starting BB first half-transformation.
	Sorting BB half-transformed integrals.
	First half integral transformation complete.
	Starting AA second half-transformation.
	Starting AB second half-transformation.
	Starting BB second half-transformation.
	Two-electron integral transformation complete.
	(OV|OV)...
	Starting AA second half-transformation.
	Starting AB second half-transformation.
	Starting BB second half-transformation.
	Two-electron integral transformation complete.
	(OV|VV)...
	Starting AA second half-transformation.
	Starting AB second half-transformation.
	Starting BB second half-transformation.
	Two-electron integral transformation complete.
	(VV|OO)...
	Starting AA/AB first half-transformation.
	Sorting AA/AB half-transformed integrals.
	Starting BB first half-transformation.
	Sorting BB half-transformed integrals.
	First half integral transformation complete.
	Starting AA second half-transformation.
	Starting AB second half-transformation.
	Starting BB second half-transformation.
	Two-electron integral transformation complete.
	(VV|OV)...
	Starting AA second half-transformation.
	Starting AB second half-transformation.
	Starting BB second half-transformation.
	Two-electron integral transformation complete.
	(VV|VV)...
	Starting AA second half-transformation.
	Starting AB second half-transformation.
	Starting BB second half-transformation.
	Two-electron integral transformation complete.
	Frozen core energy     =   -125.46355553242184

	Size of irrep 0 of <AB|CD> integrals:      5.040 (MW) /     40.320 (MB)
	Size of irrep 1 of <AB|CD> integrals:      3.197 (MW) /     25.576 (MB)
	Size of irrep 2 of <AB|CD> integrals:      3.640 (MW) /     29.124 (MB)
	Size of irrep 3 of <AB|CD> integrals:      4.783 (MW) /     38.264 (MB)
	Total:                                    16.660 (MW) /    133.283 (MB)

	Size of irrep 0 of <ab|cd> integrals:      5.327 (MW) /     42.615 (MB)
	Size of irrep 1 of <ab|cd> integrals:      3.430 (MW) /     27.439 (MB)
	Size of irrep 2 of <ab|cd> integrals:      3.893 (MW) /     31.142 (MB)
	Size of irrep 3 of <ab|cd> integrals:      5.072 (MW) /     40.572 (MB)
	Total:                                    17.721 (MW) /    141.768 (MB)

	Size of irrep 0 of <Ab|Cd> integrals:     21.912 (MW) /    175.294 (MB)
	Size of irrep 1 of <Ab|Cd> integrals:     13.242 (MW) /    105.939 (MB)
	Size of irrep 2 of <Ab|Cd> integrals:     15.062 (MW) /    120.497 (MB)
	Size of irrep 3 of <Ab|Cd> integrals:     19.705 (MW) /    157.638 (MB)
	Total:                                    69.921 (MW) /    559.368 (MB)

	Size of irrep 0 of <IA|BC> integrals:      1.469 (MW) /     11.748 (MB)
	Size of irrep 1 of <IA|BC> integrals:      0.694 (MW) /      5.550 (MB)
	Size of irrep 2 of <IA|BC> integrals:      0.908 (MW) /      7.266 (MB)
	Size of irrep 3 of <IA|BC> integrals:      1.198 (MW) /      9.588 (MB)
	Total:                                     4.269 (MW) /     34.152 (MB)

	Size of irrep 0 of <ia|bc> integrals:      1.220 (MW) /      9.758 (MB)
	Size of irrep 1 of <ia|bc> integrals:      0.493 (MW) /      3.941 (MB)
	Size of irrep 2 of <ia|bc> integrals:      0.698 (MW) /      5.588 (MB)
	Size of irrep 3 of <ia|bc> integrals:      0.959 (MW) /      7.675 (MB)
	Total:                                     3.370 (MW) /     26.961 (MB)

	Size of irrep 0 of <Ia|Bc> integrals:      1.507 (MW) /     12.058 (MB)
	Size of irrep 1 of <Ia|Bc> integrals:      0.721 (MW) /      5.764 (MB)
	Size of irrep 2 of <Ia|Bc> integrals:      0.939 (MW) /      7.514 (MB)
	Size of irrep 3 of <Ia|Bc> integrals:      1.234 (MW) /      9.872 (MB)
	Total:                                     4.401 (MW) /     35.208 (MB)

	Size of irrep 0 of <iA|bC> integrals:      1.194 (MW) /      9.549 (MB)
	Size of irrep 1 of <iA|bC> integrals:      0.477 (MW) /      3.814 (MB)
	Size of irrep 2 of <iA|bC> integrals:      0.671 (MW) /      5.371 (MB)
	Size of irrep 3 of <iA|bC> integrals:      0.928 (MW) /      7.422 (MB)
	Total:                                     3.270 (MW) /     26.156 (MB)

	Size of irrep 0 of tIjAb amplitudes:       0.094 (MW) /      0.749 (MB)
	Size of irrep 1 of tIjAb amplitudes:       0.015 (MW) /      0.116 (MB)
	Size of irrep 2 of tIjAb amplitudes:       0.047 (MW) /      0.373 (MB)
	Size of irrep 3 of tIjAb amplitudes:       0.053 (MW) /      0.426 (MB)
	Total:                                     0.208 (MW) /      1.664 (MB)

	Nuclear Rep. energy          =     21.94764563254683
	SCF energy                   =   -150.87369552947925
	One-electron energy          =    -83.26271368019525
	Two-electron (AA) energy     =      9.94758520796548
	Two-electron (BB) energy     =      5.29432372141161
	Two-electron (AB) energy     =     20.66301912121210
	Two-electron energy          =     35.90492805058919
	Reference energy             =   -150.87369552948104

*** tstop() called on c4-16.compute.lan at Wed Mar 10 09:47:29 2021
Module time:
	user time   =      54.05 seconds =       0.90 minutes
	system time =      10.39 seconds =       0.17 minutes
	total time  =         21 seconds =       0.35 minutes
Total time:
	user time   =     113.39 seconds =       1.89 minutes
	system time =      12.65 seconds =       0.21 minutes
	total time  =         29 seconds =       0.48 minutes
            **************************
            *                        *
            *        CCENERGY        *
            *                        *
            **************************

    Nuclear Rep. energy (wfn)     =   21.947645632546834
    SCF energy          (wfn)     = -150.873695529479249
    Reference energy    (file100) = -150.873695529481040

    Input parameters:
    -----------------
    Wave function   =     CCSD_T
    Reference wfn   =     UHF
    Brueckner       =     No
    Memory (Mbytes) =     4000.0
    Maxiter         =     50
    R_Convergence   =     1.0e-10
    E_Convergence   =     1.0e-10
    Restart         =     Yes
    DIIS            =     Yes
    AO Basis        =     NONE
    ABCD            =     NEW
    Cache Level     =     2
    Cache Type      =     LRU
    Print Level     =     1
    Num. of threads =     12
    # Amps to Print =     10
    Print MP2 Amps? =     No
    Analyze T2 Amps =     No
    Print Pair Ener =     No
    Local CC        =     No
    SCS-MP2         =     False
    SCSN-MP2        =     False
    SCS-CCSD        =     False

MP2 correlation energy -0.4156188542355290
                Solving CC Amplitude Equations
                ------------------------------
  Iter             Energy              RMS        T1Diag      D1Diag    New D1Diag    D2Diag
  ----     ---------------------    ---------   ----------  ----------  ----------   --------
     0        -0.415618854235529    0.000e+00    0.000000    0.000000    0.000000    0.000000
     1        -0.426505263546081    5.630e-02    0.010345    0.000000    0.000000    0.000000
     2        -0.434582006146842    1.676e-02    0.010849    0.000000    0.000000    0.000000
     3        -0.436674750969057    8.391e-03    0.012661    0.000000    0.000000    0.000000
     4        -0.436550852572336    2.489e-03    0.013005    0.000000    0.000000    0.000000
     5        -0.436538878054967    1.257e-03    0.013146    0.000000    0.000000    0.000000
     6        -0.436564351320225    4.978e-04    0.013160    0.000000    0.000000    0.000000
     7        -0.436568473615293    2.241e-04    0.013149    0.000000    0.000000    0.000000
     8        -0.436569216945783    6.806e-05    0.013143    0.000000    0.000000    0.000000
     9        -0.436570427270521    2.777e-05    0.013143    0.000000    0.000000    0.000000
    10        -0.436569259773288    1.050e-05    0.013143    0.000000    0.000000    0.000000
    11        -0.436569369298531    5.180e-06    0.013143    0.000000    0.000000    0.000000
    12        -0.436569330418661    2.520e-06    0.013143    0.000000    0.000000    0.000000
    13        -0.436569323812599    1.351e-06    0.013143    0.000000    0.000000    0.000000
    14        -0.436569350516785    6.350e-07    0.013143    0.000000    0.000000    0.000000
    15        -0.436569349150933    1.717e-07    0.013143    0.000000    0.000000    0.000000
    16        -0.436569349017578    1.048e-07    0.013143    0.000000    0.000000    0.000000
    17        -0.436569349806497    2.965e-08    0.013143    0.000000    0.000000    0.000000
    18        -0.436569349387347    1.366e-08    0.013143    0.000000    0.000000    0.000000

      * MP2 total energy                      = -151.289314383716572
      * CCSD total energy                     = -151.310264878595461
      * CCSD(T) total energy                     = -151.322469528278873
*** Psi4 exiting successfully. Buy a developer a beer!
