                               Psi4 1.3.2 release

  ==> Input File <==

--------------------------------------------------------------------------
memory 4 GB

molecule  {
0 3
O    0.000000000000    0.000000000000   -1.646778481826
H    0.000000000000   -0.756169239632   -1.050428662426
H   -0.000000000000    0.756169239632   -1.050428662426
O    0.000000000000    0.000000000000    1.779151592374
}
set {
basis aug-cc-pvtz
reference uhf
e_convergence 10
scf_type pk
freeze_core true
}

set ccenergy {
e_convergence 10
r_convergence 10
}

e = energy('ccsd(t)')

print_out('Stephenergy {}'.format(e))

--------------------------------------------------------------------------

    Molecular point group: c2v

    Geometry (in Angstrom), charge = 0, multiplicity = 3:

       Center              X                  Y                   Z               Mass
    ------------   -----------------  -----------------  -----------------  -----------------
         O            0.000000000000     0.000000000000    -1.646778481826    15.994914619570
         H            0.000000000000    -0.756169239632    -1.050428662426     1.007825032230
         H           -0.000000000000     0.756169239632    -1.050428662426     1.007825032230
         O            0.000000000000     0.000000000000     1.779151592374    15.994914619570

  Charge       = 0
  Multiplicity = 3
  Basis Set: AUG-CC-PVTZ
    Blend: AUG-CC-PVTZ

    Orbital Energies [Eh]
    ---------------------

    Alpha Occupied:

       1A1   -20.728896     2A1   -20.563209     3A1    -1.437881
       4A1    -1.346166     1B2    -0.729289     1B1    -0.728908
       2B2    -0.707609     5A1    -0.632203     6A1    -0.579647
       2B1    -0.505199

    Alpha Virtual:

       7A1     0.035469     3B2     0.048529     3B1     0.132135
       8A1     0.134739     9A1     0.147999     4B2     0.158024
       4B1     0.181184     5B2     0.184913    10A1     0.189258
      11A1     0.250211     6B2     0.257448     1A2     0.266012
      12A1     0.273438     5B1     0.319761    13A1     0.367617
       7B2     0.382290    14A1     0.453744     8B2     0.471588
       2A2     0.609106     9B2     0.615752    15A1     0.617977
      16A1     0.619611     6B1     0.640470    17A1     0.717408
       3A2     0.730987    10B2     0.735765     7B1     0.742161
      18A1     0.800586    19A1     0.838323     8B1     0.840966
      11B2     0.854078     9B1     0.915430    20A1     0.925653
       4A2     0.933868    12B2     0.941567    21A1     0.958353
      10B1     0.960550    13B2     0.962013    22A1     1.048159
      14B2     1.053673    11B1     1.122887     5A2     1.185280
      23A1     1.185659    15B2     1.255113    24A1     1.262244
      16B2     1.275529    25A1     1.346282     6A2     1.511064
      12B1     1.591322    26A1     1.631902    17B2     1.827596
      27A1     1.829170    18B2     1.971543    13B1     1.978635
      19B2     1.989065    28A1     2.005331     7A2     2.011112
      14B1     2.026098    29A1     2.036247     8A2     2.039787
      20B2     2.080852    30A1     2.085412    15B1     2.119668
      31A1     2.144907    21B2     2.260359    16B1     2.278657
       9A2     2.329014    32A1     2.337612    33A1     2.402400
      34A1     2.487026    22B2     2.491974    17B1     2.504793
      35A1     2.574965    23B2     2.690617    18B1     2.719006
      36A1     2.817806    10A2     2.887992    24B2     2.901866
      25B2     3.664539    37A1     3.751896    11A2     4.029367
      19B1     4.050736    26B2     4.084521    20B1     4.099887
      38A1     4.147945    27B2     4.275007    21B1     4.284097
      39A1     4.368712    12A2     4.382454    40A1     4.406064
      22B1     4.415077    28B2     4.528169    41A1     4.746728
      29B2     4.847554    13A2     5.146315    30B2     5.159848
      31B2     5.250259    42A1     5.363108    23B1     5.522979
      43A1     5.674223    44A1     6.196231    24B1     6.315206
      32B2     6.316043    14A2     6.370086    45A1     6.375306
      25B1     6.402078    33B2     6.450099    46A1     6.479676
      34B2     6.528494    26B1     6.736820    15A2     6.819194
      47A1     6.820606    48A1     6.926270    27B1     6.927303
      35B2     6.956899    49A1     7.032744    28B1     7.134517
      29B1     7.259140    16A2     7.314588    36B2     7.341830
      50A1     7.356373    17A2     7.357991    51A1     7.543567
      52A1     7.898927    37B2     7.931548    53A1     8.529932
      38B2     8.804673    54A1    15.686005

    Beta Occupied:

       1A1   -20.650332     2A1   -20.563247     3A1    -1.346340
       4A1    -1.095584     1B2    -0.707745     5A1    -0.583782
       6A1    -0.538447     1B1    -0.505190

    Beta Virtual:

       2B2     0.035397     7A1     0.036586     2B1     0.049934
       3B2     0.069586     8A1     0.140902     9A1     0.150569
       3B1     0.160481     4B2     0.180868    10A1     0.189576
       5B2     0.221835     4B1     0.225334    11A1     0.259192
       6B2     0.263061     1A2     0.266326    12A1     0.274904
       5B1     0.320404    13A1     0.371002     7B2     0.387340
      14A1     0.454876     8B2     0.472119     9B2     0.618196
      15A1     0.620362     2A2     0.641326    16A1     0.651409
       6B1     0.652563    17A1     0.718728     3A2     0.732418
       7B1     0.744156    10B2     0.747173    18A1     0.809138
      19A1     0.851343     8B1     0.912556     9B1     0.930256
      20A1     0.930980     4A2     0.935269    11B2     0.939907
      12B2     0.944365    21A1     0.959275    13B2     1.009634
      10B1     1.024982    22A1     1.048752    14B2     1.056444
      11B1     1.127929     5A2     1.185982    23A1     1.189709
      15B2     1.268960    16B2     1.278471    24A1     1.281034
      25A1     1.403958     6A2     1.511172    12B1     1.591424
      26A1     1.644404    17B2     1.828801    27A1     1.830299
      18B2     1.978139    13B1     2.016731    19B2     2.021377
      28A1     2.030453     7A2     2.041559    14B1     2.046311
      29A1     2.098787    20B2     2.124598    30A1     2.155087
       8A2     2.182415    15B1     2.188919    31A1     2.195120
      16B1     2.282931    21B2     2.306432     9A2     2.331961
      32A1     2.358561    33A1     2.413054    34A1     2.491381
      22B2     2.496610    17B1     2.509459    35A1     2.577915
      23B2     2.690778    18B1     2.719093    36A1     2.818114
      10A2     2.888014    24B2     2.903891    25B2     3.664574
      37A1     3.752034    11A2     4.029455    19B1     4.099255
      38A1     4.162764    20B1     4.223521    26B2     4.240020
      21B1     4.284117    27B2     4.289719    12A2     4.382502
      39A1     4.393240    40A1     4.414229    22B1     4.415270
      28B2     4.528373    41A1     4.746878    29B2     4.847646
      13A2     5.146333    30B2     5.159851    31B2     5.250283
      42A1     5.363551    23B1     5.522983    43A1     5.674557
      44A1     6.197874    24B1     6.424054    32B2     6.424750
      14A2     6.446747    45A1     6.450372    25B1     6.457374
      33B2     6.494965    46A1     6.528511    34B2     6.540260
      26B1     6.743171    47A1     6.926197    15A2     7.008217
      48A1     7.009989    27B1     7.034767    35B2     7.065945
      49A1     7.113788    28B1     7.134801    29B1     7.259095
      16A2     7.314623    36B2     7.343906    50A1     7.357060
      17A2     7.358055    51A1     7.544303    52A1     7.899148
      37B2     7.931532    53A1     8.615063    38B2     8.804612
      54A1    15.686000

    Final Occupation by Irrep:
             A1    A2    B1    B2
    DOCC [     6,    0,    1,    1 ]
    SOCC [     0,    0,    1,    1 ]

  @UHF Final Energy:  -150.87347840439296

   => Energetics <=

    Nuclear Repulsion Energy =             21.9181897424752634
    One-Electron Energy =                -251.6336619839496507
    Two-Electron Energy =                  78.8419938370814464
    Total Energy =                       -150.8734784043929551

  UHF NO Occupations:
  HONO-2 :    6 A1 1.9970745
  HONO-1 :    2 B1 1.0000000
  HONO-0 :    2 B2 1.0000000
  LUNO+0 :    7 A1 0.0029255
  LUNO+1 :    8 A1 0.0016868
  LUNO+2 :    9 A1 0.0000024
  LUNO+3 :   10 A1 0.0000004

Computation Completed

Properties will be evaluated at   0.000000,   0.000000,   0.000000 [a0]

Properties computed using the SCF density matrix

  Nuclear Dipole Moment: [e a0]
     X:     0.0000      Y:     0.0000      Z:    -1.9689

  Electronic Dipole Moment: [e a0]
     X:     0.0000      Y:     0.0000      Z:     2.8016

  Dipole Moment: [e a0]
     X:     0.0000      Y:     0.0000      Z:     0.8327     Total:     0.8327

  Dipole Moment: [D]
     X:     0.0000      Y:     0.0000      Z:     2.1165     Total:     2.1165

*** tstop() called on c2-24.compute.lan at Wed Mar 10 09:47:04 2021
Module time:
	user time   =      42.40 seconds =       0.71 minutes
	system time =       2.61 seconds =       0.04 minutes
	total time  =          5 seconds =       0.08 minutes
Total time:
	user time   =      42.40 seconds =       0.71 minutes
	system time =       2.61 seconds =       0.04 minutes
	total time  =          5 seconds =       0.08 minutes
 MINTS: Wrapper to libmints.
   by Justin Turney

   Calculation information:
      Number of threads:                12
      Number of atoms:                   4
      Number of AO shells:              46
      Number of SO shells:              37
      Number of primitives:             82
      Number of atomic orbitals:       160
      Number of basis functions:       138

      Number of irreps:                  4
      Integral cutoff                 0.00e+00
      Number of functions per irrep: [  54   17   29   38 ]

 OEINTS: Overlap, kinetic, potential, dipole, and quadrupole integrals
         stored in file 35.

      Computing two-electron integrals...done
      Computed 11335104 non-zero two-electron integrals.
        Stored in file 33.

*** tstart() called on c2-24.compute.lan
*** at Wed Mar 10 09:47:07 2021

	Wfn Parameters:
	--------------------
	Wavefunction         = CCSD_T
	Number of irreps     = 4
	Number of MOs        = 138
	Number of active MOs = 136
	AO-Basis             = NONE
	Semicanonical        = false
	Reference            = UHF
	Print Level          = 1

	IRREP	# MOs	# FZDC	# DOCC	# SOCC	# VIRT	# FZVR
	-----	-----	------	------	------	------	------
	 A1	   54	    2	    4	    0	    48	    0
	 A2	   17	    0	    0	    0	    17	    0
	 B1	   29	    0	    1	    1	    27	    0
	 B2	   38	    0	    1	    1	    36	    0
	Transforming integrals...
	IWL integrals will be deleted.
	(OO|OO)...
	Presorting SO-basis two-electron integrals.
	Sorting File: SO Ints (nn|nn) nbuckets = 1
	Transforming the one-electron integrals and constructing Fock matrices
	Starting AA/AB first half-transformation.
	Sorting AA/AB half-transformed integrals.
	Starting BB first half-transformation.
	Sorting BB half-transformed integrals.
	First half integral transformation complete.
	Starting AA second half-transformation.
	Starting AB second half-transformation.
	Starting BB second half-transformation.
	Two-electron integral transformation complete.
	(OO|OV)...
	Starting AA second half-transformation.
	Starting AB second half-transformation.
	Starting BB second half-transformation.
	Two-electron integral transformation complete.
	(OO|VV)...
	Starting AA second half-transformation.
	Starting AB second half-transformation.
	Starting BB second half-transformation.
	Two-electron integral transformation complete.
	(OV|OO)...
	Starting AA/AB first half-transformation.
	Sorting AA/AB half-transformed integrals.
	Starting BB first half-transformation.
	Sorting BB half-transformed integrals.
	First half integral transformation complete.
	Starting AA second half-transformation.
	Starting AB second half-transformation.
	Starting BB second half-transformation.
	Two-electron integral transformation complete.
	(OV|OV)...
	Starting AA second half-transformation.
	Starting AB second half-transformation.
	Starting BB second half-transformation.
	Two-electron integral transformation complete.
	(OV|VV)...
	Starting AA second half-transformation.
	Starting AB second half-transformation.
	Starting BB second half-transformation.
	Two-electron integral transformation complete.
	(VV|OO)...
	Starting AA/AB first half-transformation.
	Sorting AA/AB half-transformed integrals.
	Starting BB first half-transformation.
	Sorting BB half-transformed integrals.
	First half integral transformation complete.
	Starting AA second half-transformation.
	Starting AB second half-transformation.
	Starting BB second half-transformation.
	Two-electron integral transformation complete.
	(VV|OV)...
	Starting AA second half-transformation.
	Starting AB second half-transformation.
	Starting BB second half-transformation.
	Two-electron integral transformation complete.
	(VV|VV)...
	Starting AA second half-transformation.
	Starting AB second half-transformation.
	Starting BB second half-transformation.
	Two-electron integral transformation complete.
	Frozen core energy     =   -125.45662919192125

	Size of irrep 0 of <AB|CD> integrals:      5.040 (MW) /     40.320 (MB)
	Size of irrep 1 of <AB|CD> integrals:      3.197 (MW) /     25.576 (MB)
	Size of irrep 2 of <AB|CD> integrals:      3.640 (MW) /     29.124 (MB)
	Size of irrep 3 of <AB|CD> integrals:      4.783 (MW) /     38.264 (MB)
	Total:                                    16.660 (MW) /    133.283 (MB)

	Size of irrep 0 of <ab|cd> integrals:      5.327 (MW) /     42.615 (MB)
	Size of irrep 1 of <ab|cd> integrals:      3.430 (MW) /     27.439 (MB)
	Size of irrep 2 of <ab|cd> integrals:      3.893 (MW) /     31.142 (MB)
	Size of irrep 3 of <ab|cd> integrals:      5.072 (MW) /     40.572 (MB)
	Total:                                    17.721 (MW) /    141.768 (MB)

	Size of irrep 0 of <Ab|Cd> integrals:     21.912 (MW) /    175.294 (MB)
	Size of irrep 1 of <Ab|Cd> integrals:     13.242 (MW) /    105.939 (MB)
	Size of irrep 2 of <Ab|Cd> integrals:     15.062 (MW) /    120.497 (MB)
	Size of irrep 3 of <Ab|Cd> integrals:     19.705 (MW) /    157.638 (MB)
	Total:                                    69.921 (MW) /    559.368 (MB)

	Size of irrep 0 of <IA|BC> integrals:      1.469 (MW) /     11.748 (MB)
	Size of irrep 1 of <IA|BC> integrals:      0.694 (MW) /      5.550 (MB)
	Size of irrep 2 of <IA|BC> integrals:      0.908 (MW) /      7.266 (MB)
	Size of irrep 3 of <IA|BC> integrals:      1.198 (MW) /      9.588 (MB)
	Total:                                     4.269 (MW) /     34.152 (MB)

	Size of irrep 0 of <ia|bc> integrals:      1.220 (MW) /      9.758 (MB)
	Size of irrep 1 of <ia|bc> integrals:      0.493 (MW) /      3.941 (MB)
	Size of irrep 2 of <ia|bc> integrals:      0.698 (MW) /      5.588 (MB)
	Size of irrep 3 of <ia|bc> integrals:      0.959 (MW) /      7.675 (MB)
	Total:                                     3.370 (MW) /     26.961 (MB)

	Size of irrep 0 of <Ia|Bc> integrals:      1.507 (MW) /     12.058 (MB)
	Size of irrep 1 of <Ia|Bc> integrals:      0.721 (MW) /      5.764 (MB)
	Size of irrep 2 of <Ia|Bc> integrals:      0.939 (MW) /      7.514 (MB)
	Size of irrep 3 of <Ia|Bc> integrals:      1.234 (MW) /      9.872 (MB)
	Total:                                     4.401 (MW) /     35.208 (MB)

	Size of irrep 0 of <iA|bC> integrals:      1.194 (MW) /      9.549 (MB)
	Size of irrep 1 of <iA|bC> integrals:      0.477 (MW) /      3.814 (MB)
	Size of irrep 2 of <iA|bC> integrals:      0.671 (MW) /      5.371 (MB)
	Size of irrep 3 of <iA|bC> integrals:      0.928 (MW) /      7.422 (MB)
	Total:                                     3.270 (MW) /     26.156 (MB)

	Size of irrep 0 of tIjAb amplitudes:       0.094 (MW) /      0.749 (MB)
	Size of irrep 1 of tIjAb amplitudes:       0.015 (MW) /      0.116 (MB)
	Size of irrep 2 of tIjAb amplitudes:       0.047 (MW) /      0.373 (MB)
	Size of irrep 3 of tIjAb amplitudes:       0.053 (MW) /      0.426 (MB)
	Total:                                     0.208 (MW) /      1.664 (MB)

	Nuclear Rep. energy          =     21.91818974247526
	SCF energy                   =   -150.87347840439296
	One-electron energy          =    -83.22608797861032
	Two-electron (AA) energy     =      9.94484327879311
	Two-electron (BB) energy     =      5.29163898731068
	Two-electron (AB) energy     =     20.65456675755817
	Two-electron energy          =     35.89104902366196
	Reference energy             =   -150.87347840439435

*** tstop() called on c2-24.compute.lan at Wed Mar 10 09:47:46 2021
Module time:
	user time   =     294.83 seconds =       4.91 minutes
	system time =      20.60 seconds =       0.34 minutes
	total time  =         39 seconds =       0.65 minutes
Total time:
	user time   =     342.76 seconds =       5.71 minutes
	system time =      23.76 seconds =       0.40 minutes
	total time  =         47 seconds =       0.78 minutes
            **************************
            *                        *
            *        CCENERGY        *
            *                        *
            **************************

    Nuclear Rep. energy (wfn)     =   21.918189742475263
    SCF energy          (wfn)     = -150.873478404392955
    Reference energy    (file100) = -150.873478404394348

    Input parameters:
    -----------------
    Wave function   =     CCSD_T
    Reference wfn   =     UHF
    Brueckner       =     No
    Memory (Mbytes) =     4000.0
    Maxiter         =     50
    R_Convergence   =     1.0e-10
    E_Convergence   =     1.0e-10
    Restart         =     Yes
    DIIS            =     Yes
    AO Basis        =     NONE
    ABCD            =     NEW
    Cache Level     =     2
    Cache Type      =     LRU
    Print Level     =     1
    Num. of threads =     12
    # Amps to Print =     10
    Print MP2 Amps? =     No
    Analyze T2 Amps =     No
    Print Pair Ener =     No
    Local CC        =     No
    SCS-MP2         =     False
    SCSN-MP2        =     False
    SCS-CCSD        =     False

MP2 correlation energy -0.4158316641190906
                Solving CC Amplitude Equations
                ------------------------------
  Iter             Energy              RMS        T1Diag      D1Diag    New D1Diag    D2Diag
  ----     ---------------------    ---------   ----------  ----------  ----------   --------
     0        -0.415831664119091    0.000e+00    0.000000    0.000000    0.000000    0.000000
     1        -0.426655794080927    5.648e-02    0.010379    0.000000    0.000000    0.000000
     2        -0.434759292072371    1.682e-02    0.010878    0.000000    0.000000    0.000000
     3        -0.436864277001054    8.427e-03    0.012699    0.000000    0.000000    0.000000
     4        -0.436740310368049    2.494e-03    0.013043    0.000000    0.000000    0.000000
     5        -0.436728212130052    1.260e-03    0.013186    0.000000    0.000000    0.000000
     6        -0.436753640242778    4.989e-04    0.013200    0.000000    0.000000    0.000000
     7        -0.436757774992569    2.252e-04    0.013190    0.000000    0.000000    0.000000
     8        -0.436758529838553    6.841e-05    0.013184    0.000000    0.000000    0.000000
     9        -0.436759751973971    2.799e-05    0.013183    0.000000    0.000000    0.000000
    10        -0.436758574684242    1.060e-05    0.013183    0.000000    0.000000    0.000000
    11        -0.436758685473754    5.243e-06    0.013183    0.000000    0.000000    0.000000
    12        -0.436758645809858    2.554e-06    0.013183    0.000000    0.000000    0.000000
    13        -0.436758639321842    1.370e-06    0.013183    0.000000    0.000000    0.000000
    14        -0.436758666368818    6.421e-07    0.013183    0.000000    0.000000    0.000000
    15        -0.436758664947987    1.731e-07    0.013183    0.000000    0.000000    0.000000
    16        -0.436758664814007    1.058e-07    0.013183    0.000000    0.000000    0.000000
    17        -0.436758665621281    2.996e-08    0.013183    0.000000    0.000000    0.000000
    18        -0.436758665201000    1.377e-08    0.013183    0.000000    0.000000    0.000000

      * MP2 total energy                      = -151.289310068513430
      * CCSD total energy                     = -151.310237069324018
      * CCSD(T) total energy                     = -151.322469685520815
*** Psi4 exiting successfully. Buy a developer a beer!
