                               Psi4 1.3.2 release

  ==> Input File <==

--------------------------------------------------------------------------
memory 4 GB

molecule  {
0 3
O    0.000000000000    0.000000000000   -1.548221819245
H    0.000000000000   -0.754189993432   -0.943717355345
H   -0.000000000000    0.754189993432   -0.943717355345
O    0.000000000000    0.000000000000    1.667147364855
}
set {
basis aug-cc-pvtz
reference uhf
e_convergence 10
scf_type pk
freeze_core true
}

set ccenergy {
e_convergence 10
r_convergence 10
}

e = energy('ccsd(t)')

print_out('Stephenergy {}'.format(e))

--------------------------------------------------------------------------

    Molecular point group: c2v

    Geometry (in Angstrom), charge = 0, multiplicity = 3:

       Center              X                  Y                   Z               Mass
    ------------   -----------------  -----------------  -----------------  -----------------
         O            0.000000000000     0.000000000000    -1.548221819245    15.994914619570
         H            0.000000000000    -0.754189993432    -0.943717355345     1.007825032230
         H           -0.000000000000     0.754189993432    -0.943717355345     1.007825032230
         O            0.000000000000     0.000000000000     1.667147364855    15.994914619570

  Charge       = 0
  Multiplicity = 3
  Basis Set: AUG-CC-PVTZ
    Blend: AUG-CC-PVTZ

    Orbital Energies [Eh]
    ---------------------

    Alpha Occupied:

       1A1   -20.731039     2A1   -20.562681     3A1    -1.440436
       4A1    -1.343728     1B2    -0.731883     1B1    -0.731258
       2B2    -0.702622     5A1    -0.636386     6A1    -0.578191
       2B1    -0.503899

    Alpha Virtual:

       7A1     0.035773     3B2     0.048592     3B1     0.131521
       8A1     0.132908     9A1     0.150473     4B2     0.158812
       4B1     0.183786     5B2     0.185454    10A1     0.190328
      11A1     0.258059     6B2     0.260844     1A2     0.265913
      12A1     0.274664     5B1     0.323199    13A1     0.376431
       7B2     0.384409    14A1     0.453481     8B2     0.472860
       2A2     0.610381    15A1     0.624035     9B2     0.624098
      16A1     0.631021     6B1     0.646196    17A1     0.716925
       3A2     0.731762    10B2     0.743674     7B1     0.752891
      18A1     0.793347     8B1     0.832863    11B2     0.850239
      19A1     0.850842     9B1     0.918541     4A2     0.940853
      12B2     0.942323    20A1     0.957676    21A1     0.964715
      10B1     0.981927    13B2     0.990019    22A1     1.052576
      14B2     1.056721    11B1     1.143989     5A2     1.189708
      23A1     1.194434    24A1     1.255307    15B2     1.273005
      16B2     1.301962    25A1     1.392821     6A2     1.508777
      12B1     1.586485    26A1     1.697535    27A1     1.836299
      17B2     1.839676    18B2     1.965269    13B1     1.977039
      19B2     1.999768    28A1     2.005343     7A2     2.015718
      14B1     2.032728    29A1     2.040645     8A2     2.056195
      30A1     2.091539    20B2     2.099970    15B1     2.139060
      31A1     2.181776    16B1     2.294469    21B2     2.304288
       9A2     2.336325    32A1     2.386784    33A1     2.399812
      34A1     2.484612    22B2     2.511899    17B1     2.534991
      35A1     2.588730    23B2     2.696593    18B1     2.724239
      36A1     2.828671    10A2     2.888267    24B2     2.909097
      25B2     3.664525    37A1     3.740729    11A2     4.036347
      19B1     4.052452    26B2     4.104031    20B1     4.104457
      38A1     4.192158    21B1     4.272299    27B2     4.274222
      39A1     4.336494    12A2     4.383336    22B1     4.416576
      40A1     4.468064    28B2     4.533048    41A1     4.755015
      29B2     4.847005    13A2     5.135907    30B2     5.166814
      31B2     5.237055    42A1     5.356746    23B1     5.517080
      43A1     5.663462    44A1     6.201198    24B1     6.313430
      32B2     6.315209    14A2     6.378574    45A1     6.388182
      25B1     6.411767    33B2     6.479476    46A1     6.500794
      34B2     6.536496    26B1     6.755915    15A2     6.820603
      47A1     6.822480    48A1     6.930161    27B1     6.936867
      35B2     6.972508    49A1     7.037376    28B1     7.132884
      29B1     7.260226    16A2     7.309634    36B2     7.338353
      17A2     7.357654    50A1     7.374125    51A1     7.544048
      52A1     7.885776    37B2     7.930458    53A1     8.669948
      38B2     8.794841    54A1    15.603433

    Beta Occupied:

       1A1   -20.652517     2A1   -20.562742     3A1    -1.344044
       4A1    -1.098274     1B2    -0.702880     5A1    -0.586472
       6A1    -0.538881     1B1    -0.503862

    Beta Virtual:

       2B2     0.033927     7A1     0.036983     2B1     0.048393
       3B2     0.069541     8A1     0.138736     9A1     0.152970
       3B1     0.161118     4B2     0.180074    10A1     0.190706
       5B2     0.224719     4B1     0.225797     6B2     0.264284
       1A2     0.266388    11A1     0.266763    12A1     0.277290
       5B1     0.324444    13A1     0.379951     7B2     0.391375
      14A1     0.454966     8B2     0.473342     9B2     0.625913
      15A1     0.633037     2A2     0.642373    16A1     0.656637
       6B1     0.657206    17A1     0.718007     3A2     0.733023
      10B2     0.756132     7B1     0.756242    18A1     0.807458
      19A1     0.856581     8B1     0.911313     9B1     0.935540
      11B2     0.940279     4A2     0.943023    12B2     0.949803
      20A1     0.960313    21A1     0.969390    13B2     1.024151
      10B1     1.033131    22A1     1.053787    14B2     1.062760
      11B1     1.153676     5A2     1.190639    23A1     1.198433
      15B2     1.273194    24A1     1.294110    16B2     1.319855
      25A1     1.424759     6A2     1.509016    12B1     1.586745
      26A1     1.715034    27A1     1.838634    17B2     1.840883
      18B2     1.975745    13B1     2.014748    19B2     2.027488
      28A1     2.029918    14B1     2.056900     7A2     2.058436
      29A1     2.100437    20B2     2.152277    30A1     2.180906
       8A2     2.184671    15B1     2.200623    31A1     2.223008
      16B1     2.302255     9A2     2.340732    21B2     2.340786
      32A1     2.390803    33A1     2.423003    34A1     2.486475
      22B2     2.518895    17B1     2.539912    35A1     2.591513
      23B2     2.696957    18B1     2.724387    36A1     2.829378
      10A2     2.888320    24B2     2.910925    25B2     3.664748
      37A1     3.740916    11A2     4.036479    19B1     4.101176
      38A1     4.202671    20B1     4.226910    26B2     4.254312
      21B1     4.272732    27B2     4.292096    39A1     4.349773
      12A2     4.383404    22B1     4.417161    40A1     4.491654
      28B2     4.533999    41A1     4.755655    29B2     4.847396
      13A2     5.135947    30B2     5.166839    31B2     5.237151
      42A1     5.357208    23B1     5.517083    43A1     5.663784
      44A1     6.205074    24B1     6.422167    32B2     6.423699
      14A2     6.455110    45A1     6.461701    25B1     6.466195
      33B2     6.507080    46A1     6.547925    34B2     6.565592
      26B1     6.763304    47A1     6.931941    15A2     7.009319
      48A1     7.012500    27B1     7.042719    35B2     7.081291
      49A1     7.115581    28B1     7.133977    29B1     7.260226
      16A2     7.309666    36B2     7.339709    17A2     7.357784
      50A1     7.375469    51A1     7.545509    52A1     7.885951
      37B2     7.930447    53A1     8.752631    38B2     8.794736
      54A1    15.603434

    Final Occupation by Irrep:
             A1    A2    B1    B2
    DOCC [     6,    0,    1,    1 ]
    SOCC [     0,    0,    1,    1 ]

  @UHF Final Energy:  -150.87252977993489

   => Energetics <=

    Nuclear Repulsion Energy =             22.7591314728628191
    One-Electron Energy =                -253.3115283351012295
    Two-Electron Energy =                  79.6798670823035309
    Total Energy =                       -150.8725297799348937

  UHF NO Occupations:
  HONO-2 :    6 A1 1.9970790
  HONO-1 :    2 B2 1.0000000
  HONO-0 :    2 B1 1.0000000
  LUNO+0 :    7 A1 0.0029210
  LUNO+1 :    8 A1 0.0016504
  LUNO+2 :    9 A1 0.0000024
  LUNO+3 :   10 A1 0.0000010

Computation Completed

Properties will be evaluated at   0.000000,   0.000000,   0.000000 [a0]

Properties computed using the SCF density matrix

  Nuclear Dipole Moment: [e a0]
     X:     0.0000      Y:     0.0000      Z:    -1.7688

  Electronic Dipole Moment: [e a0]
     X:     0.0000      Y:     0.0000      Z:     2.6183

  Dipole Moment: [e a0]
     X:     0.0000      Y:     0.0000      Z:     0.8495     Total:     0.8495

  Dipole Moment: [D]
     X:     0.0000      Y:     0.0000      Z:     2.1592     Total:     2.1592

*** tstop() called on c4-16.compute.lan at Wed Mar 10 09:34:34 2021
Module time:
	user time   =      53.92 seconds =       0.90 minutes
	system time =       1.79 seconds =       0.03 minutes
	total time  =          6 seconds =       0.10 minutes
Total time:
	user time   =      53.92 seconds =       0.90 minutes
	system time =       1.79 seconds =       0.03 minutes
	total time  =          6 seconds =       0.10 minutes
 MINTS: Wrapper to libmints.
   by Justin Turney

   Calculation information:
      Number of threads:                12
      Number of atoms:                   4
      Number of AO shells:              46
      Number of SO shells:              37
      Number of primitives:             82
      Number of atomic orbitals:       160
      Number of basis functions:       138

      Number of irreps:                  4
      Integral cutoff                 0.00e+00
      Number of functions per irrep: [  54   17   29   38 ]

 OEINTS: Overlap, kinetic, potential, dipole, and quadrupole integrals
         stored in file 35.

      Computing two-electron integrals...done
      Computed 11526846 non-zero two-electron integrals.
        Stored in file 33.

*** tstart() called on c4-16.compute.lan
*** at Wed Mar 10 09:34:37 2021

	Wfn Parameters:
	--------------------
	Wavefunction         = CCSD_T
	Number of irreps     = 4
	Number of MOs        = 138
	Number of active MOs = 136
	AO-Basis             = NONE
	Semicanonical        = false
	Reference            = UHF
	Print Level          = 1

	IRREP	# MOs	# FZDC	# DOCC	# SOCC	# VIRT	# FZVR
	-----	-----	------	------	------	------	------
	 A1	   54	    2	    4	    0	    48	    0
	 A2	   17	    0	    0	    0	    17	    0
	 B1	   29	    0	    1	    1	    27	    0
	 B2	   38	    0	    1	    1	    36	    0
	Transforming integrals...
	IWL integrals will be deleted.
	(OO|OO)...
	Presorting SO-basis two-electron integrals.
	Sorting File: SO Ints (nn|nn) nbuckets = 1
	Transforming the one-electron integrals and constructing Fock matrices
	Starting AA/AB first half-transformation.
	Sorting AA/AB half-transformed integrals.
	Starting BB first half-transformation.
	Sorting BB half-transformed integrals.
	First half integral transformation complete.
	Starting AA second half-transformation.
	Starting AB second half-transformation.
	Starting BB second half-transformation.
	Two-electron integral transformation complete.
	(OO|OV)...
	Starting AA second half-transformation.
	Starting AB second half-transformation.
	Starting BB second half-transformation.
	Two-electron integral transformation complete.
	(OO|VV)...
	Starting AA second half-transformation.
	Starting AB second half-transformation.
	Starting BB second half-transformation.
	Two-electron integral transformation complete.
	(OV|OO)...
	Starting AA/AB first half-transformation.
	Sorting AA/AB half-transformed integrals.
	Starting BB first half-transformation.
	Sorting BB half-transformed integrals.
	First half integral transformation complete.
	Starting AA second half-transformation.
	Starting AB second half-transformation.
	Starting BB second half-transformation.
	Two-electron integral transformation complete.
	(OV|OV)...
	Starting AA second half-transformation.
	Starting AB second half-transformation.
	Starting BB second half-transformation.
	Two-electron integral transformation complete.
	(OV|VV)...
	Starting AA second half-transformation.
	Starting AB second half-transformation.
	Starting BB second half-transformation.
	Two-electron integral transformation complete.
	(VV|OO)...
	Starting AA/AB first half-transformation.
	Sorting AA/AB half-transformed integrals.
	Starting BB first half-transformation.
	Sorting BB half-transformed integrals.
	First half integral transformation complete.
	Starting AA second half-transformation.
	Starting AB second half-transformation.
	Starting BB second half-transformation.
	Two-electron integral transformation complete.
	(VV|OV)...
	Starting AA second half-transformation.
	Starting AB second half-transformation.
	Starting BB second half-transformation.
	Two-electron integral transformation complete.
	(VV|VV)...
	Starting AA second half-transformation.
	Starting AB second half-transformation.
	Starting BB second half-transformation.
	Two-electron integral transformation complete.
	Frozen core energy     =   -125.78803834705811

	Size of irrep 0 of <AB|CD> integrals:      5.040 (MW) /     40.320 (MB)
	Size of irrep 1 of <AB|CD> integrals:      3.197 (MW) /     25.576 (MB)
	Size of irrep 2 of <AB|CD> integrals:      3.640 (MW) /     29.124 (MB)
	Size of irrep 3 of <AB|CD> integrals:      4.783 (MW) /     38.264 (MB)
	Total:                                    16.660 (MW) /    133.283 (MB)

	Size of irrep 0 of <ab|cd> integrals:      5.327 (MW) /     42.615 (MB)
	Size of irrep 1 of <ab|cd> integrals:      3.430 (MW) /     27.439 (MB)
	Size of irrep 2 of <ab|cd> integrals:      3.893 (MW) /     31.142 (MB)
	Size of irrep 3 of <ab|cd> integrals:      5.072 (MW) /     40.572 (MB)
	Total:                                    17.721 (MW) /    141.768 (MB)

	Size of irrep 0 of <Ab|Cd> integrals:     21.912 (MW) /    175.294 (MB)
	Size of irrep 1 of <Ab|Cd> integrals:     13.242 (MW) /    105.939 (MB)
	Size of irrep 2 of <Ab|Cd> integrals:     15.062 (MW) /    120.497 (MB)
	Size of irrep 3 of <Ab|Cd> integrals:     19.705 (MW) /    157.638 (MB)
	Total:                                    69.921 (MW) /    559.368 (MB)

	Size of irrep 0 of <IA|BC> integrals:      1.469 (MW) /     11.748 (MB)
	Size of irrep 1 of <IA|BC> integrals:      0.694 (MW) /      5.550 (MB)
	Size of irrep 2 of <IA|BC> integrals:      0.908 (MW) /      7.266 (MB)
	Size of irrep 3 of <IA|BC> integrals:      1.198 (MW) /      9.588 (MB)
	Total:                                     4.269 (MW) /     34.152 (MB)

	Size of irrep 0 of <ia|bc> integrals:      1.220 (MW) /      9.758 (MB)
	Size of irrep 1 of <ia|bc> integrals:      0.493 (MW) /      3.941 (MB)
	Size of irrep 2 of <ia|bc> integrals:      0.698 (MW) /      5.588 (MB)
	Size of irrep 3 of <ia|bc> integrals:      0.959 (MW) /      7.675 (MB)
	Total:                                     3.370 (MW) /     26.961 (MB)

	Size of irrep 0 of <Ia|Bc> integrals:      1.507 (MW) /     12.058 (MB)
	Size of irrep 1 of <Ia|Bc> integrals:      0.721 (MW) /      5.764 (MB)
	Size of irrep 2 of <Ia|Bc> integrals:      0.939 (MW) /      7.514 (MB)
	Size of irrep 3 of <Ia|Bc> integrals:      1.234 (MW) /      9.872 (MB)
	Total:                                     4.401 (MW) /     35.208 (MB)

	Size of irrep 0 of <iA|bC> integrals:      1.194 (MW) /      9.549 (MB)
	Size of irrep 1 of <iA|bC> integrals:      0.477 (MW) /      3.814 (MB)
	Size of irrep 2 of <iA|bC> integrals:      0.671 (MW) /      5.371 (MB)
	Size of irrep 3 of <iA|bC> integrals:      0.928 (MW) /      7.422 (MB)
	Total:                                     3.270 (MW) /     26.156 (MB)

	Size of irrep 0 of tIjAb amplitudes:       0.094 (MW) /      0.749 (MB)
	Size of irrep 1 of tIjAb amplitudes:       0.015 (MW) /      0.116 (MB)
	Size of irrep 2 of tIjAb amplitudes:       0.047 (MW) /      0.373 (MB)
	Size of irrep 3 of tIjAb amplitudes:       0.053 (MW) /      0.426 (MB)
	Total:                                     0.208 (MW) /      1.664 (MB)

	Nuclear Rep. energy          =     22.75913147286282
	SCF energy                   =   -150.87252977993489
	One-electron energy          =    -84.24443015985304
	Two-electron (AA) energy     =     10.11381201055387
	Two-electron (BB) energy     =      5.37820457005062
	Two-electron (AB) energy     =     20.90879067350745
	Two-electron energy          =     36.40080725411194
	Reference energy             =   -150.87252977993637

*** tstop() called on c4-16.compute.lan at Wed Mar 10 09:34:58 2021
Module time:
	user time   =      54.02 seconds =       0.90 minutes
	system time =      10.44 seconds =       0.17 minutes
	total time  =         21 seconds =       0.35 minutes
Total time:
	user time   =     113.26 seconds =       1.89 minutes
	system time =      12.63 seconds =       0.21 minutes
	total time  =         30 seconds =       0.50 minutes
            **************************
            *                        *
            *        CCENERGY        *
            *                        *
            **************************

    Nuclear Rep. energy (wfn)     =   22.759131472862819
    SCF energy          (wfn)     = -150.872529779934894
    Reference energy    (file100) = -150.872529779936372

    Input parameters:
    -----------------
    Wave function   =     CCSD_T
    Reference wfn   =     UHF
    Brueckner       =     No
    Memory (Mbytes) =     4000.0
    Maxiter         =     50
    R_Convergence   =     1.0e-10
    E_Convergence   =     1.0e-10
    Restart         =     Yes
    DIIS            =     Yes
    AO Basis        =     NONE
    ABCD            =     NEW
    Cache Level     =     2
    Cache Type      =     LRU
    Print Level     =     1
    Num. of threads =     12
    # Amps to Print =     10
    Print MP2 Amps? =     No
    Analyze T2 Amps =     No
    Print Pair Ener =     No
    Local CC        =     No
    SCS-MP2         =     False
    SCSN-MP2        =     False
    SCS-CCSD        =     False

MP2 correlation energy -0.4164883644250006
                Solving CC Amplitude Equations
                ------------------------------
  Iter             Energy              RMS        T1Diag      D1Diag    New D1Diag    D2Diag
  ----     ---------------------    ---------   ----------  ----------  ----------   --------
     0        -0.416488364425001    0.000e+00    0.000000    0.000000    0.000000    0.000000
     1        -0.427226330692341    5.681e-02    0.010469    0.000000    0.000000    0.000000
     2        -0.435387804929975    1.691e-02    0.010984    0.000000    0.000000    0.000000
     3        -0.437501909932000    8.533e-03    0.012840    0.000000    0.000000    0.000000
     4        -0.437377559025486    2.507e-03    0.013199    0.000000    0.000000    0.000000
     5        -0.437362622201556    1.304e-03    0.013353    0.000000    0.000000    0.000000
     6        -0.437388790692351    5.087e-04    0.013375    0.000000    0.000000    0.000000
     7        -0.437393483444118    2.550e-04    0.013369    0.000000    0.000000    0.000000
     8        -0.437394109644669    7.591e-05    0.013364    0.000000    0.000000    0.000000
     9        -0.437395431766468    3.753e-05    0.013365    0.000000    0.000000    0.000000
    10        -0.437394026629866    1.716e-05    0.013365    0.000000    0.000000    0.000000
    11        -0.437394140046735    9.753e-06    0.013365    0.000000    0.000000    0.000000
    12        -0.437394090573336    4.651e-06    0.013366    0.000000    0.000000    0.000000
    13        -0.437394115306694    2.003e-06    0.013366    0.000000    0.000000    0.000000
    14        -0.437394168827975    7.950e-07    0.013366    0.000000    0.000000    0.000000
    15        -0.437394171165672    2.029e-07    0.013366    0.000000    0.000000    0.000000
    16        -0.437394171591130    1.154e-07    0.013366    0.000000    0.000000    0.000000
    17        -0.437394172658321    3.425e-08    0.013366    0.000000    0.000000    0.000000
    18        -0.437394172166428    1.543e-08    0.013366    0.000000    0.000000    0.000000

      * MP2 total energy                      = -151.289018144361364
      * CCSD total energy                     = -151.309923951956563
      * CCSD(T) total energy                     = -151.322248345989408
*** Psi4 exiting successfully. Buy a developer a beer!
