                               Psi4 1.3.2 release

  ==> Input File <==

--------------------------------------------------------------------------
memory 4 GB

molecule  {
0 3
O   -1.504283629691   -0.002007516554    0.000000000000
H   -0.554456396930    0.152263387508    0.000000000000
H   -1.891809795989    0.877945110232    0.000000000000
O    1.658420639069   -0.062904984521    0.000000000000
}
set {
basis aug-cc-pvtz
reference uhf
e_convergence 10
scf_type pk
freeze_core true
}

set ccenergy {
e_convergence 10
r_convergence 10
}

e = energy('ccsd(t)')

print_out('Stephenergy {}'.format(e))

--------------------------------------------------------------------------

    Molecular point group: cs

    Geometry (in Angstrom), charge = 0, multiplicity = 3:

       Center              X                  Y                   Z               Mass
    ------------   -----------------  -----------------  -----------------  -----------------
         O           -1.504283629691    -0.002007516554     0.000000000000    15.994914619570
         H           -0.554456396930     0.152263387508     0.000000000000     1.007825032230
         H           -1.891809795989     0.877945110232     0.000000000000     1.007825032230
         O            1.658420639069    -0.062904984521     0.000000000000    15.994914619570

  Charge       = 0
  Multiplicity = 3
  Basis Set: AUG-CC-PVTZ
    Blend: AUG-CC-PVTZ

    Orbital Energies [Eh]
    ---------------------

    Alpha Occupied:

       1Ap   -20.733095     2Ap   -20.558697     3Ap    -1.442428
       4Ap    -1.343010     5Ap    -0.733196     1App   -0.732822
       6Ap    -0.710407     7Ap    -0.634502     8Ap    -0.574925
       2App   -0.501901

    Alpha Virtual:

       9Ap     0.034219    10Ap     0.053479    11Ap     0.128150
       3App    0.132890    12Ap     0.148140    13Ap     0.160774
      14Ap     0.183915     4App    0.186803    15Ap     0.214137
      16Ap     0.242015    17Ap     0.264490     5App    0.286350
      18Ap     0.303718     6App    0.320780    19Ap     0.364705
      20Ap     0.406017    21Ap     0.460458    22Ap     0.568424
       7App    0.602564    23Ap     0.608716    24Ap     0.627603
      25Ap     0.681473     8App    0.709740    26Ap     0.714723
       9App    0.736585    10App    0.748659    27Ap     0.751650
      28Ap     0.811680    11App    0.825986    29Ap     0.837060
      12App    0.890720    30Ap     0.891149    31Ap     0.923053
      32Ap     0.945165    13App    0.947507    33Ap     0.951365
      14App    0.972030    34Ap     0.979066    35Ap     1.043291
      36Ap     1.135462    15App    1.154366    37Ap     1.170168
      38Ap     1.185621    39Ap     1.261306    16App    1.294461
      40Ap     1.316804    17App    1.527439    41Ap     1.586691
      18App    1.598413    42Ap     1.714823    43Ap     1.809909
      44Ap     1.842011    45Ap     1.977561    19App    1.977689
      46Ap     1.978863    20App    2.013188    47Ap     2.018013
      21App    2.048568    48Ap     2.060971    22App    2.122739
      49Ap     2.153447    50Ap     2.176206    23App    2.212707
      24App    2.302655    51Ap     2.311435    52Ap     2.338284
      53Ap     2.414895    25App    2.442185    54Ap     2.458636
      55Ap     2.492210    26App    2.526542    56Ap     2.630189
      57Ap     2.710633    27App    2.727516    58Ap     2.735939
      59Ap     2.860353    60Ap     2.933486    28App    2.943545
      61Ap     3.696154    62Ap     3.892374    29App    4.036065
      30App    4.062867    63Ap     4.074153    31App    4.178147
      64Ap     4.209379    65Ap     4.265500    32App    4.302688
      33App    4.391309    66Ap     4.407685    34App    4.430320
      67Ap     4.444747    68Ap     4.601592    69Ap     4.779042
      70Ap     4.958861    35App    5.156293    71Ap     5.171823
      72Ap     5.299229    73Ap     5.390861    36App    5.526103
      74Ap     5.692089    75Ap     6.189047    37App    6.312328
      76Ap     6.312359    38App    6.375476    77Ap     6.378186
      39App    6.518445    78Ap     6.519850    79Ap     6.559600
      80Ap     6.637315    40App    6.735511    81Ap     6.814407
      41App    6.820044    82Ap     6.921219    42App    6.936852
      83Ap     6.961685    84Ap     7.051008    43App    7.148727
      44App    7.272160    45App    7.326263    85Ap     7.326522
      86Ap     7.364036    46App    7.435609    87Ap     7.648462
      88Ap     7.946655    89Ap     7.961570    90Ap     8.811118
      91Ap     9.514642    92Ap    16.320476

    Beta Occupied:

       1Ap   -20.654310     2Ap   -20.558827     3Ap    -1.343584
       4Ap    -1.099963     5Ap    -0.709613     6Ap    -0.579930
       7Ap    -0.541233     1App   -0.501944

    Beta Virtual:

       8Ap     0.034366     2App    0.049339     9Ap     0.049556
      10Ap     0.055212    11Ap     0.143861    12Ap     0.152907
       3App    0.161186    13Ap     0.178104    14Ap     0.207846
      15Ap     0.225358     4App    0.227178    16Ap     0.250784
      17Ap     0.265761     5App    0.286559    18Ap     0.305858
       6App    0.324528    19Ap     0.368605    20Ap     0.416932
      21Ap     0.461712    22Ap     0.571995    23Ap     0.628351
       7App    0.634960    24Ap     0.640467    25Ap     0.686222
      26Ap     0.715372     8App    0.721831     9App    0.739707
      10App    0.750340    27Ap     0.768367    28Ap     0.818049
      29Ap     0.867235    11App    0.868977    30Ap     0.920071
      12App    0.941782    31Ap     0.941960    13App    0.949678
      32Ap     0.952739    33Ap     0.970224    34Ap     1.017709
      14App    1.020303    35Ap     1.045623    15App    1.157532
      36Ap     1.163256    37Ap     1.173701    38Ap     1.216410
      39Ap     1.264414    16App    1.305059    40Ap     1.325558
      17App    1.528152    41Ap     1.588996    18App    1.599862
      42Ap     1.741141    43Ap     1.815359    44Ap     1.852657
      45Ap     1.986708    46Ap     2.015656    19App    2.015666
      20App    2.053845    47Ap     2.065694    21App    2.170879
      48Ap     2.176253    22App    2.179650    49Ap     2.194529
      50Ap     2.244887    23App    2.249975    24App    2.306029
      51Ap     2.316876    52Ap     2.360875    53Ap     2.419399
      25App    2.444861    54Ap     2.459430    55Ap     2.498527
      26App    2.535014    56Ap     2.637334    57Ap     2.727000
      27App    2.728839    58Ap     2.740050    59Ap     2.862173
      60Ap     2.937901    28App    2.944174    61Ap     3.696831
      62Ap     3.894752    29App    4.038921    30App    4.146870
      63Ap     4.193626    64Ap     4.244061    31App    4.262568
      65Ap     4.276968    32App    4.302742    33App    4.391379
      66Ap     4.411481    34App    4.431008    67Ap     4.489024
      68Ap     4.604066    69Ap     4.780671    70Ap     4.960851
      35App    5.156280    71Ap     5.172123    72Ap     5.299468
      73Ap     5.392091    36App    5.526165    74Ap     5.692444
      75Ap     6.190270    76Ap     6.421182    37App    6.421187
      38App    6.450672    77Ap     6.453406    78Ap     6.534635
      39App    6.572350    79Ap     6.600717    80Ap     6.682282
      40App    6.741413    81Ap     6.923116    41App    7.005157
      82Ap     7.006773    42App    7.046068    83Ap     7.068485
      84Ap     7.130754    43App    7.151221    44App    7.272404
      85Ap     7.326822    45App    7.326988    86Ap     7.364819
      46App    7.436020    87Ap     7.649323    88Ap     7.947637
      89Ap     7.961936    90Ap     8.812685    91Ap     9.589626
      92Ap    16.320755

    Final Occupation by Irrep:
             Ap   App
    DOCC [     7,    1 ]
    SOCC [     1,    1 ]

  @UHF Final Energy:  -150.87448390348084

   => Energetics <=

    Nuclear Repulsion Energy =             22.9131941136885118
    One-Electron Energy =                -253.6209689748676510
    Two-Electron Energy =                  79.8332909576982956
    Total Energy =                       -150.8744839034808365

  UHF NO Occupations:
  HONO-2 :    7 Ap 1.9970283
  HONO-1 :    2App 1.0000000
  HONO-0 :    8 Ap 1.0000000
  LUNO+0 :    9 Ap 0.0029717
  LUNO+1 :   10 Ap 0.0017155
  LUNO+2 :   11 Ap 0.0000024
  LUNO+3 :   12 Ap 0.0000017

Computation Completed

Properties will be evaluated at   0.000000,   0.000000,   0.000000 [a0]

Properties computed using the SCF density matrix

  Nuclear Dipole Moment: [e a0]
     X:    -2.2926      Y:     0.9655      Z:     0.0000

  Electronic Dipole Moment: [e a0]
     X:     2.7571      Y:    -0.2916      Z:     0.0000

  Dipole Moment: [e a0]
     X:     0.4646      Y:     0.6739      Z:     0.0000     Total:     0.8185

  Dipole Moment: [D]
     X:     1.1808      Y:     1.7129      Z:     0.0000     Total:     2.0805

*** tstop() called on c2-19.compute.lan at Tue Mar  9 15:30:09 2021
Module time:
	user time   =      65.46 seconds =       1.09 minutes
	system time =       3.17 seconds =       0.05 minutes
	total time  =          7 seconds =       0.12 minutes
Total time:
	user time   =      65.46 seconds =       1.09 minutes
	system time =       3.17 seconds =       0.05 minutes
	total time  =          7 seconds =       0.12 minutes
 MINTS: Wrapper to libmints.
   by Justin Turney

   Calculation information:
      Number of threads:                12
      Number of atoms:                   4
      Number of AO shells:              46
      Number of SO shells:              46
      Number of primitives:             82
      Number of atomic orbitals:       160
      Number of basis functions:       138

      Number of irreps:                  2
      Integral cutoff                 0.00e+00
      Number of functions per irrep: [  92   46 ]

 OEINTS: Overlap, kinetic, potential, dipole, and quadrupole integrals
         stored in file 35.

      Computing two-electron integrals...done
      Computed 22940607 non-zero two-electron integrals.
        Stored in file 33.

*** tstart() called on c2-19.compute.lan
*** at Tue Mar  9 15:30:15 2021

	Wfn Parameters:
	--------------------
	Wavefunction         = CCSD_T
	Number of irreps     = 2
	Number of MOs        = 138
	Number of active MOs = 136
	AO-Basis             = NONE
	Semicanonical        = false
	Reference            = UHF
	Print Level          = 1

	IRREP	# MOs	# FZDC	# DOCC	# SOCC	# VIRT	# FZVR
	-----	-----	------	------	------	------	------
	 Ap	   92	    2	    5	    1	    84	    0
	 App	   46	    0	    1	    1	    44	    0
	Transforming integrals...
	IWL integrals will be deleted.
	(OO|OO)...
	Presorting SO-basis two-electron integrals.
	Sorting File: SO Ints (nn|nn) nbuckets = 1
	Transforming the one-electron integrals and constructing Fock matrices
	Starting AA/AB first half-transformation.
	Sorting AA/AB half-transformed integrals.
	Starting BB first half-transformation.
	Sorting BB half-transformed integrals.
	First half integral transformation complete.
	Starting AA second half-transformation.
	Starting AB second half-transformation.
	Starting BB second half-transformation.
	Two-electron integral transformation complete.
	(OO|OV)...
	Starting AA second half-transformation.
	Starting AB second half-transformation.
	Starting BB second half-transformation.
	Two-electron integral transformation complete.
	(OO|VV)...
	Starting AA second half-transformation.
	Starting AB second half-transformation.
	Starting BB second half-transformation.
	Two-electron integral transformation complete.
	(OV|OO)...
	Starting AA/AB first half-transformation.
	Sorting AA/AB half-transformed integrals.
	Starting BB first half-transformation.
	Sorting BB half-transformed integrals.
	First half integral transformation complete.
	Starting AA second half-transformation.
	Starting AB second half-transformation.
	Starting BB second half-transformation.
	Two-electron integral transformation complete.
	(OV|OV)...
	Starting AA second half-transformation.
	Starting AB second half-transformation.
	Starting BB second half-transformation.
	Two-electron integral transformation complete.
	(OV|VV)...
	Starting AA second half-transformation.
	Starting AB second half-transformation.
	Starting BB second half-transformation.
	Two-electron integral transformation complete.
	(VV|OO)...
	Starting AA/AB first half-transformation.
	Sorting AA/AB half-transformed integrals.
	Starting BB first half-transformation.
	Sorting BB half-transformed integrals.
	First half integral transformation complete.
	Starting AA second half-transformation.
	Starting AB second half-transformation.
	Starting BB second half-transformation.
	Two-electron integral transformation complete.
	(VV|OV)...
	Starting AA second half-transformation.
	Starting AB second half-transformation.
	Starting BB second half-transformation.
	Two-electron integral transformation complete.
	(VV|VV)...
	Starting AA second half-transformation.
	Starting AB second half-transformation.
	Starting BB second half-transformation.
	Two-electron integral transformation complete.
	Frozen core energy     =   -125.85975046636011

	Size of irrep 0 of <AB|CD> integrals:     19.643 (MW) /    157.141 (MB)
	Size of irrep 1 of <AB|CD> integrals:     13.660 (MW) /    109.283 (MB)
	Total:                                    33.303 (MW) /    266.424 (MB)

	Size of irrep 0 of <ab|cd> integrals:     20.794 (MW) /    166.349 (MB)
	Size of irrep 1 of <ab|cd> integrals:     14.631 (MW) /    117.045 (MB)
	Total:                                    35.424 (MW) /    283.394 (MB)

	Size of irrep 0 of <Ab|Cd> integrals:     83.174 (MW) /    665.395 (MB)
	Size of irrep 1 of <Ab|Cd> integrals:     56.550 (MW) /    452.403 (MB)
	Total:                                   139.725 (MW) /   1117.798 (MB)

	Size of irrep 0 of <IA|BC> integrals:      5.323 (MW) /     42.586 (MB)
	Size of irrep 1 of <IA|BC> integrals:      3.193 (MW) /     25.547 (MB)
	Total:                                     8.517 (MW) /     68.133 (MB)

	Size of irrep 0 of <ia|bc> integrals:      4.348 (MW) /     34.780 (MB)
	Size of irrep 1 of <ia|bc> integrals:      2.372 (MW) /     18.972 (MB)
	Total:                                     6.719 (MW) /     53.752 (MB)

	Size of irrep 0 of <Ia|Bc> integrals:      5.472 (MW) /     43.776 (MB)
	Size of irrep 1 of <Ia|Bc> integrals:      3.309 (MW) /     26.470 (MB)
	Total:                                     8.781 (MW) /     70.246 (MB)

	Size of irrep 0 of <iA|bC> integrals:      4.232 (MW) /     33.853 (MB)
	Size of irrep 1 of <iA|bC> integrals:      2.286 (MW) /     18.289 (MB)
	Total:                                     6.518 (MW) /     52.142 (MB)

	Size of irrep 0 of tIjAb amplitudes:       0.292 (MW) /      2.335 (MB)
	Size of irrep 1 of tIjAb amplitudes:       0.120 (MW) /      0.963 (MB)
	Total:                                     0.412 (MW) /      3.297 (MB)

	Nuclear Rep. energy          =     22.91319411368851
	SCF energy                   =   -150.87448390348084
	One-electron energy          =    -84.40639732566353
	Two-electron (AA) energy     =     10.13718830471463
	Two-electron (BB) energy     =      5.39270021661406
	Two-electron (AB) energy     =     20.94858125352468
	Two-electron energy          =     36.47846977485338
	Reference energy             =   -150.87448390348175

*** tstop() called on c2-19.compute.lan at Tue Mar  9 15:31:35 2021
Module time:
	user time   =     301.07 seconds =       5.02 minutes
	system time =      27.68 seconds =       0.46 minutes
	total time  =         80 seconds =       1.33 minutes
Total time:
	user time   =     374.44 seconds =       6.24 minutes
	system time =      31.96 seconds =       0.53 minutes
	total time  =         93 seconds =       1.55 minutes
            **************************
            *                        *
            *        CCENERGY        *
            *                        *
            **************************

    Nuclear Rep. energy (wfn)     =   22.913194113688512
    SCF energy          (wfn)     = -150.874483903480836
    Reference energy    (file100) = -150.874483903481746

    Input parameters:
    -----------------
    Wave function   =     CCSD_T
    Reference wfn   =     UHF
    Brueckner       =     No
    Memory (Mbytes) =     4000.0
    Maxiter         =     50
    R_Convergence   =     1.0e-10
    E_Convergence   =     1.0e-10
    Restart         =     Yes
    DIIS            =     Yes
    AO Basis        =     NONE
    ABCD            =     NEW
    Cache Level     =     2
    Cache Type      =     LRU
    Print Level     =     1
    Num. of threads =     12
    # Amps to Print =     10
    Print MP2 Amps? =     No
    Analyze T2 Amps =     No
    Print Pair Ener =     No
    Local CC        =     No
    SCS-MP2         =     False
    SCSN-MP2        =     False
    SCS-CCSD        =     False

MP2 correlation energy -0.4166012420657849
                Solving CC Amplitude Equations
                ------------------------------
  Iter             Energy              RMS        T1Diag      D1Diag    New D1Diag    D2Diag
  ----     ---------------------    ---------   ----------  ----------  ----------   --------
     0        -0.416601242065785    0.000e+00    0.000000    0.000000    0.000000    0.000000
     1        -0.427323846160659    5.688e-02    0.010551    0.000000    0.000000    0.000000
     2        -0.435411286170682    1.689e-02    0.011031    0.000000    0.000000    0.000000
     3        -0.437532458141240    8.573e-03    0.012902    0.000000    0.000000    0.000000
     4        -0.437406639768991    2.535e-03    0.013269    0.000000    0.000000    0.000000
     5        -0.437392165040816    1.320e-03    0.013425    0.000000    0.000000    0.000000
     6        -0.437419404203234    5.148e-04    0.013447    0.000000    0.000000    0.000000
     7        -0.437424038137225    2.647e-04    0.013442    0.000000    0.000000    0.000000
     8        -0.437424637122918    9.949e-05    0.013437    0.000000    0.000000    0.000000
     9        -0.437426009037462    7.417e-05    0.013438    0.000000    0.000000    0.000000
    10        -0.437424450410568    6.402e-05    0.013439    0.000000    0.000000    0.000000
    11        -0.437424596790457    6.116e-05    0.013441    0.000000    0.000000    0.000000
    12        -0.437424310717282    5.946e-05    0.013443    0.000000    0.000000    0.000000
    13        -0.437424302869383    5.833e-05    0.013446    0.000000    0.000000    0.000000
    14        -0.437425471905465    5.647e-05    0.013464    0.000000    0.000000    0.000000
    15        -0.437425850036625    4.999e-05    0.013536    0.000000    0.000000    0.000000
    16        -0.437425625786016    3.348e-05    0.013675    0.000000    0.000000    0.000000
    17        -0.437425280622132    1.618e-05    0.013744    0.000000    0.000000    0.000000
    18        -0.437425150431565    7.587e-06    0.013762    0.000000    0.000000    0.000000
    19        -0.437425409255762    3.354e-06    0.013766    0.000000    0.000000    0.000000
    20        -0.437425521127266    1.503e-06    0.013767    0.000000    0.000000    0.000000
    21        -0.437425529084398    5.924e-07    0.013767    0.000000    0.000000    0.000000
    22        -0.437425530372646    2.812e-07    0.013767    0.000000    0.000000    0.000000
    23        -0.437425529272270    1.460e-07    0.013767    0.000000    0.000000    0.000000
    24        -0.437425528587174    6.051e-08    0.013768    0.000000    0.000000    0.000000
    25        -0.437425529549984    3.300e-08    0.013768    0.000000    0.000000    0.000000
    26        -0.437425530009679    2.557e-08    0.013768    0.000000    0.000000    0.000000
    27        -0.437425530168302    2.394e-08    0.013768    0.000000    0.000000    0.000000
    28        -0.437425530116613    2.320e-08    0.013768    0.000000    0.000000    0.000000
    29        -0.437425529954309    2.254e-08    0.013768    0.000000    0.000000    0.000000
    30        -0.437425529688045    2.147e-08    0.013768    0.000000    0.000000    0.000000
    31        -0.437425529880199    1.822e-08    0.013768    0.000000    0.000000    0.000000
    32        -0.437425530225472    9.613e-09    0.013768    0.000000    0.000000    0.000000
    33        -0.437425530328359    4.209e-09    0.013768    0.000000    0.000000    0.000000
    34        -0.437425530381026    1.719e-09    0.013768    0.000000    0.000000    0.000000
    35        -0.437425530387817    6.754e-10    0.013768    0.000000    0.000000    0.000000
    36        -0.437425530387602    2.891e-10    0.013768    0.000000    0.000000    0.000000

      * MP2 total energy                      = -151.291085145547527
      * CCSD total energy                     = -151.311909433868635
      * CCSD(T) total energy                     = -151.324263204951251
*** Psi4 exiting successfully. Buy a developer a beer!
