                               Psi4 1.3.2 release

  ==> Input File <==

--------------------------------------------------------------------------
memory 4 GB

molecule  {
0 3
O    0.000000000000    0.000000000000   -1.232769943139
H    0.000000000000   -0.758665699200   -0.642862296913
H   -0.000000000000    0.758665699200   -0.642862296913
O    0.000000000000    0.000000000000    1.313782281187
}
set {
basis aug-cc-pvtz
reference uhf
e_convergence 10
scf_type pk
freeze_core true
}

set ccenergy {
e_convergence 10
r_convergence 10
}

e = energy('ccsd(t)')

print_out('Stephenergy {}'.format(e))

--------------------------------------------------------------------------

    Molecular point group: c2v

    Geometry (in Angstrom), charge = 0, multiplicity = 3:

       Center              X                  Y                   Z               Mass
    ------------   -----------------  -----------------  -----------------  -----------------
         O           -0.000000000000     0.000000000000    -1.232769943139    15.994914619570
         H            0.000000000000    -0.758665699200    -0.642862296913     1.007825032230
         H           -0.000000000000     0.758665699200    -0.642862296913     1.007825032230
         O           -0.000000000000     0.000000000000     1.313782281187    15.994914619570

  Charge       = 0
  Multiplicity = 3
  Basis Set: AUG-CC-PVTZ
    Blend: AUG-CC-PVTZ

    Orbital Energies [Eh]
    ---------------------

    Alpha Occupied:

       1A1   -20.735356     2A1   -20.567435     3A1    -1.449961
       4A1    -1.354982     5A1    -0.748802     1B1    -0.737349
       1B2    -0.719659     2B2    -0.636800     6A1    -0.581262
       2B1    -0.511402

    Alpha Virtual:

       7A1     0.036815     3B2     0.050254     8A1     0.118788
       3B1     0.130447     9A1     0.156328     4B2     0.166033
       4B1     0.190337     5B2     0.191215    10A1     0.193110
       1A2     0.263425    11A1     0.263935     6B2     0.275933
      12A1     0.291106     5B1     0.337476     7B2     0.395352
      13A1     0.407233    14A1     0.454379     8B2     0.475698
       9B2     0.630924     2A2     0.647464     6B1     0.653041
      15A1     0.659454    16A1     0.687967    17A1     0.711918
       3A2     0.723207    18A1     0.735579    10B2     0.767554
       7B1     0.791267     8B1     0.844574    19A1     0.885842
      11B2     0.889445     9B1     0.922524    12B2     0.945213
      20A1     0.982460     4A2     0.986847    21A1     1.023296
      10B1     1.032171    13B2     1.060454    22A1     1.084837
      14B2     1.136167    23A1     1.151356     5A2     1.211762
      11B1     1.226836    24A1     1.246381    15B2     1.247482
      16B2     1.447331     6A2     1.511581    25A1     1.571747
      12B1     1.579432    17B2     1.757271    26A1     1.810061
      27A1     1.859313    18B2     1.947868    13B1     2.005568
      28A1     2.036538    14B1     2.042230     7A2     2.076533
      19B2     2.083128    29A1     2.094014    30A1     2.174208
      15B1     2.178421     8A2     2.195507    31A1     2.215150
      20B2     2.221120     9A2     2.377219    32A1     2.395698
      16B1     2.438914    21B2     2.460236    33A1     2.470785
      17B1     2.512822    22B2     2.517216    34A1     2.553878
      18B1     2.732705    23B2     2.754619    35A1     2.756911
      10A2     2.883328    36A1     2.895457    24B2     2.954092
      25B2     3.687685    37A1     3.839107    11A2     4.034632
      19B1     4.078471    20B1     4.111154    38A1     4.212954
      26B2     4.237190    21B1     4.314937    27B2     4.334444
      12A2     4.381142    22B1     4.448600    39A1     4.488165
      40A1     4.569472    28B2     4.675923    41A1     4.754272
      29B2     4.913509    13A2     5.157350    30B2     5.161725
      31B2     5.272602    42A1     5.374686    23B1     5.520367
      43A1     5.693948    44A1     6.236971    24B1     6.392373
      32B2     6.402028    25B1     6.435390    14A2     6.452809
      45A1     6.471923    33B2     6.532311    46A1     6.611758
      34B2     6.729445    26B1     6.771835    47A1     6.879210
      27B1     6.880747    15A2     6.895309    48A1     6.965548
      49A1     6.992133    35B2     7.012852    28B1     7.171729
      29B1     7.261089    16A2     7.312094    17A2     7.358685
      36B2     7.377684    50A1     7.382674    51A1     7.602774
      37B2     7.954153    52A1     7.992397    38B2     8.805391
      53A1     9.940717    54A1    15.819291

    Beta Occupied:

       1A1   -20.656450     2A1   -20.565791     3A1    -1.351871
       4A1    -1.105813     1B2    -0.717476     5A1    -0.581084
       2B2    -0.547681     1B1    -0.508990

    Beta Virtual:

       6A1     0.037778     2B1     0.046139     3B2     0.050609
       7A1     0.052569     8A1     0.142108     3B1     0.159698
       4B2     0.167953     9A1     0.181430     5B2     0.193516
      10A1     0.194798     4B1     0.226291     1A2     0.263714
      11A1     0.267115     6B2     0.276225    12A1     0.299233
       5B1     0.346331     7B2     0.397677    13A1     0.433929
      14A1     0.459744     8B2     0.475859     9B2     0.630614
       2A2     0.661785     6B1     0.671918    15A1     0.674282
      16A1     0.711970    17A1     0.715448     3A2     0.723506
      10B2     0.783651    18A1     0.788732     7B1     0.824680
      19A1     0.895634    11B2     0.901780     8B1     0.920071
       9B1     0.935879    12B2     0.949984     4A2     0.988789
      20A1     0.989396    21A1     1.036599    10B1     1.060930
      13B2     1.061160    22A1     1.111255    14B2     1.145532
      23A1     1.208126     5A2     1.212973    15B2     1.247854
      11B1     1.249214    24A1     1.257315    16B2     1.453738
       6A2     1.511745    12B1     1.580266    25A1     1.590731
      17B2     1.762799    26A1     1.815103    27A1     1.902140
      18B2     1.950784    13B1     2.029774    19B2     2.097836
      28A1     2.101046    14B1     2.111029    29A1     2.144526
       7A2     2.147909     8A2     2.222460    30A1     2.234516
      31A1     2.244290    15B1     2.260669    20B2     2.291698
       9A2     2.386056    32A1     2.422584    16B1     2.467023
      21B2     2.474926    33A1     2.494587    17B1     2.514131
      22B2     2.525381    34A1     2.566294    18B1     2.733901
      23B2     2.758112    35A1     2.770733    10A2     2.883798
      36A1     2.904255    24B2     2.956527    25B2     3.688438
      37A1     3.848732    11A2     4.034181    19B1     4.111680
      20B1     4.229054    38A1     4.249761    26B2     4.256041
      21B1     4.330600    27B2     4.358863    12A2     4.380764
      22B1     4.453098    39A1     4.513106    40A1     4.662144
      28B2     4.678546    41A1     4.756872    29B2     4.915344
      13A2     5.157582    30B2     5.163181    31B2     5.274064
      42A1     5.377753    23B1     5.520919    43A1     5.695615
      44A1     6.242219    24B1     6.449081    32B2     6.459647
      14A2     6.528878    33B2     6.535053    25B1     6.541578
      45A1     6.547602    46A1     6.689851    26B1     6.774814
      34B2     6.793094    47A1     6.966352    15A2     7.007987
      48A1     7.017377    27B1     7.064899    49A1     7.118608
      35B2     7.121605    28B1     7.174621    29B1     7.264574
      16A2     7.313418    17A2     7.360029    36B2     7.379113
      50A1     7.393956    51A1     7.608901    37B2     7.955825
      52A1     7.996084    38B2     8.807653    53A1    10.011516
      54A1    15.820424

    Final Occupation by Irrep:
             A1    A2    B1    B2
    DOCC [     5,    0,    1,    2 ]
    SOCC [     1,    0,    1,    0 ]

  @UHF Final Energy:  -150.86626098886040

   => Energetics <=

    Nuclear Repulsion Energy =             26.4928388661805272
    One-Electron Energy =                -260.6400353635955298
    Two-Electron Energy =                  83.2809355085545917
    Total Energy =                       -150.8662609888604038

  UHF NO Occupations:
  HONO-2 :    5 A1 1.9970598
  HONO-1 :    6 A1 1.0000000
  HONO-0 :    2 B1 1.0000000
  LUNO+0 :    7 A1 0.0029402
  LUNO+1 :    3 B2 0.0017575
  LUNO+2 :    8 A1 0.0002796
  LUNO+3 :    3 B1 0.0000176

Computation Completed

Properties will be evaluated at   0.000000,   0.000000,   0.000000 [a0]

Properties computed using the SCF density matrix

  Nuclear Dipole Moment: [e a0]
     X:    -0.0000      Y:     0.0000      Z:    -1.2049

  Electronic Dipole Moment: [e a0]
     X:     0.0000      Y:     0.0000      Z:     2.0231

  Dipole Moment: [e a0]
     X:    -0.0000      Y:     0.0000      Z:     0.8181     Total:     0.8181

  Dipole Moment: [D]
     X:    -0.0000      Y:     0.0000      Z:     2.0795     Total:     2.0795

*** tstop() called on c1-11.compute.lan at Wed Mar 10 09:13:04 2021
Module time:
	user time   =      45.81 seconds =       0.76 minutes
	system time =       2.67 seconds =       0.04 minutes
	total time  =          7 seconds =       0.12 minutes
Total time:
	user time   =      45.81 seconds =       0.76 minutes
	system time =       2.67 seconds =       0.04 minutes
	total time  =          7 seconds =       0.12 minutes
 MINTS: Wrapper to libmints.
   by Justin Turney

   Calculation information:
      Number of threads:                12
      Number of atoms:                   4
      Number of AO shells:              46
      Number of SO shells:              37
      Number of primitives:             82
      Number of atomic orbitals:       160
      Number of basis functions:       138

      Number of irreps:                  4
      Integral cutoff                 0.00e+00
      Number of functions per irrep: [  54   17   29   38 ]

 OEINTS: Overlap, kinetic, potential, dipole, and quadrupole integrals
         stored in file 35.

      Computing two-electron integrals...done
      Computed 11508020 non-zero two-electron integrals.
        Stored in file 33.

*** tstart() called on c1-11.compute.lan
*** at Wed Mar 10 09:13:06 2021

	Wfn Parameters:
	--------------------
	Wavefunction         = CCSD_T
	Number of irreps     = 4
	Number of MOs        = 138
	Number of active MOs = 136
	AO-Basis             = NONE
	Semicanonical        = false
	Reference            = UHF
	Print Level          = 1

	IRREP	# MOs	# FZDC	# DOCC	# SOCC	# VIRT	# FZVR
	-----	-----	------	------	------	------	------
	 A1	   54	    2	    3	    1	    48	    0
	 A2	   17	    0	    0	    0	    17	    0
	 B1	   29	    0	    1	    1	    27	    0
	 B2	   38	    0	    2	    0	    36	    0
	Transforming integrals...
	IWL integrals will be deleted.
	(OO|OO)...
	Presorting SO-basis two-electron integrals.
	Sorting File: SO Ints (nn|nn) nbuckets = 1
	Transforming the one-electron integrals and constructing Fock matrices
	Starting AA/AB first half-transformation.
	Sorting AA/AB half-transformed integrals.
	Starting BB first half-transformation.
	Sorting BB half-transformed integrals.
	First half integral transformation complete.
	Starting AA second half-transformation.
	Starting AB second half-transformation.
	Starting BB second half-transformation.
	Two-electron integral transformation complete.
	(OO|OV)...
	Starting AA second half-transformation.
	Starting AB second half-transformation.
	Starting BB second half-transformation.
	Two-electron integral transformation complete.
	(OO|VV)...
	Starting AA second half-transformation.
	Starting AB second half-transformation.
	Starting BB second half-transformation.
	Two-electron integral transformation complete.
	(OV|OO)...
	Starting AA/AB first half-transformation.
	Sorting AA/AB half-transformed integrals.
	Starting BB first half-transformation.
	Sorting BB half-transformed integrals.
	First half integral transformation complete.
	Starting AA second half-transformation.
	Starting AB second half-transformation.
	Starting BB second half-transformation.
	Two-electron integral transformation complete.
	(OV|OV)...
	Starting AA second half-transformation.
	Starting AB second half-transformation.
	Starting BB second half-transformation.
	Two-electron integral transformation complete.
	(OV|VV)...
	Starting AA second half-transformation.
	Starting AB second half-transformation.
	Starting BB second half-transformation.
	Two-electron integral transformation complete.
	(VV|OO)...
	Starting AA/AB first half-transformation.
	Sorting AA/AB half-transformed integrals.
	Starting BB first half-transformation.
	Sorting BB half-transformed integrals.
	First half integral transformation complete.
	Starting AA second half-transformation.
	Starting AB second half-transformation.
	Starting BB second half-transformation.
	Two-electron integral transformation complete.
	(VV|OV)...
	Starting AA second half-transformation.
	Starting AB second half-transformation.
	Starting BB second half-transformation.
	Two-electron integral transformation complete.
	(VV|VV)...
	Starting AA second half-transformation.
	Starting AB second half-transformation.
	Starting BB second half-transformation.
	Two-electron integral transformation complete.
	Frozen core energy     =   -127.24069274604007

	Size of irrep 0 of <AB|CD> integrals:      5.040 (MW) /     40.320 (MB)
	Size of irrep 1 of <AB|CD> integrals:      3.197 (MW) /     25.576 (MB)
	Size of irrep 2 of <AB|CD> integrals:      3.640 (MW) /     29.124 (MB)
	Size of irrep 3 of <AB|CD> integrals:      4.783 (MW) /     38.264 (MB)
	Total:                                    16.660 (MW) /    133.283 (MB)

	Size of irrep 0 of <ab|cd> integrals:      5.382 (MW) /     43.059 (MB)
	Size of irrep 1 of <ab|cd> integrals:      3.389 (MW) /     27.114 (MB)
	Size of irrep 2 of <ab|cd> integrals:      3.936 (MW) /     31.490 (MB)
	Size of irrep 3 of <ab|cd> integrals:      5.018 (MW) /     40.141 (MB)
	Total:                                    17.726 (MW) /    141.804 (MB)

	Size of irrep 0 of <Ab|Cd> integrals:     22.024 (MW) /    176.194 (MB)
	Size of irrep 1 of <Ab|Cd> integrals:     13.170 (MW) /    105.357 (MB)
	Size of irrep 2 of <Ab|Cd> integrals:     15.140 (MW) /    121.119 (MB)
	Size of irrep 3 of <Ab|Cd> integrals:     19.598 (MW) /    156.787 (MB)
	Total:                                    69.932 (MW) /    559.457 (MB)

	Size of irrep 0 of <IA|BC> integrals:      1.469 (MW) /     11.748 (MB)
	Size of irrep 1 of <IA|BC> integrals:      0.694 (MW) /      5.550 (MB)
	Size of irrep 2 of <IA|BC> integrals:      0.908 (MW) /      7.266 (MB)
	Size of irrep 3 of <IA|BC> integrals:      1.198 (MW) /      9.588 (MB)
	Total:                                     4.269 (MW) /     34.152 (MB)

	Size of irrep 0 of <ia|bc> integrals:      1.178 (MW) /      9.426 (MB)
	Size of irrep 1 of <ia|bc> integrals:      0.527 (MW) /      4.212 (MB)
	Size of irrep 2 of <ia|bc> integrals:      0.663 (MW) /      5.301 (MB)
	Size of irrep 3 of <ia|bc> integrals:      0.999 (MW) /      7.992 (MB)
	Total:                                     3.366 (MW) /     26.931 (MB)

	Size of irrep 0 of <Ia|Bc> integrals:      1.521 (MW) /     12.164 (MB)
	Size of irrep 1 of <Ia|Bc> integrals:      0.711 (MW) /      5.690 (MB)
	Size of irrep 2 of <Ia|Bc> integrals:      0.949 (MW) /      7.595 (MB)
	Size of irrep 3 of <Ia|Bc> integrals:      1.222 (MW) /      9.775 (MB)
	Total:                                     4.403 (MW) /     35.225 (MB)

	Size of irrep 0 of <iA|bC> integrals:      1.140 (MW) /      9.123 (MB)
	Size of irrep 1 of <iA|bC> integrals:      0.512 (MW) /      4.094 (MB)
	Size of irrep 2 of <iA|bC> integrals:      0.634 (MW) /      5.074 (MB)
	Size of irrep 3 of <iA|bC> integrals:      0.978 (MW) /      7.827 (MB)
	Total:                                     3.265 (MW) /     26.118 (MB)

	Size of irrep 0 of tIjAb amplitudes:       0.084 (MW) /      0.676 (MB)
	Size of irrep 1 of tIjAb amplitudes:       0.022 (MW) /      0.174 (MB)
	Size of irrep 2 of tIjAb amplitudes:       0.039 (MW) /      0.311 (MB)
	Size of irrep 3 of tIjAb amplitudes:       0.062 (MW) /      0.496 (MB)
	Total:                                     0.207 (MW) /      1.657 (MB)

	Nuclear Rep. energy          =     26.49283886618053
	SCF energy                   =   -150.86626098886040
	One-electron energy          =    -88.68368108852559
	Two-electron (AA) energy     =     10.86380280682292
	Two-electron (BB) energy     =      5.70143559107661
	Two-electron (AB) energy     =     22.00003558162152
	Two-electron energy          =     38.56527397952105
	Reference energy             =   -150.86626098886410

*** tstop() called on c1-11.compute.lan at Wed Mar 10 09:13:36 2021
Module time:
	user time   =     118.14 seconds =       1.97 minutes
	system time =      18.41 seconds =       0.31 minutes
	total time  =         30 seconds =       0.50 minutes
Total time:
	user time   =     168.84 seconds =       2.81 minutes
	system time =      21.59 seconds =       0.36 minutes
	total time  =         39 seconds =       0.65 minutes
            **************************
            *                        *
            *        CCENERGY        *
            *                        *
            **************************

    Nuclear Rep. energy (wfn)     =   26.492838866180527
    SCF energy          (wfn)     = -150.866260988860404
    Reference energy    (file100) = -150.866260988864099

    Input parameters:
    -----------------
    Wave function   =     CCSD_T
    Reference wfn   =     UHF
    Brueckner       =     No
    Memory (Mbytes) =     4000.0
    Maxiter         =     50
    R_Convergence   =     1.0e-10
    E_Convergence   =     1.0e-10
    Restart         =     Yes
    DIIS            =     Yes
    AO Basis        =     NONE
    ABCD            =     NEW
    Cache Level     =     2
    Cache Type      =     LRU
    Print Level     =     1
    Num. of threads =     12
    # Amps to Print =     10
    Print MP2 Amps? =     No
    Analyze T2 Amps =     No
    Print Pair Ener =     No
    Local CC        =     No
    SCS-MP2         =     False
    SCSN-MP2        =     False
    SCS-CCSD        =     False

MP2 correlation energy -0.4189604271669863
                Solving CC Amplitude Equations
                ------------------------------
  Iter             Energy              RMS        T1Diag      D1Diag    New D1Diag    D2Diag
  ----     ---------------------    ---------   ----------  ----------  ----------   --------
     0        -0.418960427166986    0.000e+00    0.000000    0.000000    0.000000    0.000000
     1        -0.429508054548779    6.115e-02    0.012119    0.000000    0.000000    0.000000
     2        -0.437855547281587    1.860e-02    0.012844    0.000000    0.000000    0.000000
     3        -0.440191885671026    1.244e-02    0.015708    0.000000    0.000000    0.000000
     4        -0.440144806451775    4.813e-03    0.017031    0.000000    0.000000    0.000000
     5        -0.440107129631616    3.298e-03    0.017951    0.000000    0.000000    0.000000
     6        -0.440181132512182    1.276e-03    0.018393    0.000000    0.000000    0.000000
     7        -0.440191762664817    5.916e-04    0.018502    0.000000    0.000000    0.000000
     8        -0.440190703099592    2.260e-04    0.018554    0.000000    0.000000    0.000000
     9        -0.440194393590938    1.219e-04    0.018561    0.000000    0.000000    0.000000
    10        -0.440188686946349    6.312e-05    0.018576    0.000000    0.000000    0.000000
    11        -0.440189305881015    3.036e-05    0.018575    0.000000    0.000000    0.000000
    12        -0.440189118708216    1.195e-05    0.018578    0.000000    0.000000    0.000000
    13        -0.440189316102827    6.300e-06    0.018577    0.000000    0.000000    0.000000
    14        -0.440189537267535    2.520e-06    0.018577    0.000000    0.000000    0.000000
    15        -0.440189538921510    1.079e-06    0.018577    0.000000    0.000000    0.000000
    16        -0.440189544627772    4.730e-07    0.018577    0.000000    0.000000    0.000000
    17        -0.440189546273522    1.618e-07    0.018577    0.000000    0.000000    0.000000
    18        -0.440189544234469    8.087e-08    0.018577    0.000000    0.000000    0.000000

      * MP2 total energy                      = -151.285221416031078
      * CCSD total energy                     = -151.306450533045478
      * CCSD(T) total energy                     = -151.319326461288256
*** Psi4 exiting successfully. Buy a developer a beer!
