                               Psi4 1.4a2.dev191

  ==> Input File <==

--------------------------------------------------------------------------
memory 10 GB

molecule {
0 2
O
H 1 R1
R1 = 0.96
}

set {
basis aug-cc-pvqz
e_convergence 10
reference uhf
scf_type pk
g_convergence gau_verytight
}

optimize("scf")

--------------------------------------------------------------------------

    Molecular point group: c2v
  Charge       = 0
  Multiplicity = 2
  Basis Set: AUG-CC-PVQZ
    Blend: AUG-CC-PVQZ
  @UHF Final Energy:   -75.42691649495308
    Total Energy =                        -75.4269164949530762
    Molecular point group: c2v
  Basis Set: AUG-CC-PVQZ
    Blend: AUG-CC-PVQZ
  Basis Set: AUG-CC-PVQZ
    Blend: AUG-CC-PVQZ
  @UHF Final Energy:   -75.42701120933924
    Total Energy =                        -75.4270112093392413
  Basis Set: AUG-CC-PVQZ
    Blend: AUG-CC-PVQZ
  Basis Set: AUG-CC-PVQZ
    Blend: AUG-CC-PVQZ
  @UHF Final Energy:   -75.42701125406857
    Total Energy =                        -75.4270112540685602
  Basis Set: AUG-CC-PVQZ
    Blend: AUG-CC-PVQZ
  Charge       = 0
  Multiplicity = 2
  Basis Set: AUG-CC-PVQZ
    Blend: AUG-CC-PVQZ

    Orbital Energies [Eh]
    ---------------------

    Alpha Occupied:

       1A1   -20.637034     2A1    -1.395108     3A1    -0.688449
       1B1    -0.659638     1B2    -0.562591

    Alpha Virtual:

       4A1     0.027719     5A1     0.113576     2B1     0.129908
       2B2     0.137231     6A1     0.162046     3B1     0.213457
       3B2     0.218077     7A1     0.220540     8A1     0.351376
       9A1     0.471870     1A2     0.473138    10A1     0.508067
       4B1     0.545938     4B2     0.556473     5B1     0.619886
       5B2     0.636342    11A1     0.648079     2A2     0.679438
      12A1     0.680161    13A1     0.708078     6B1     0.735515
       6B2     0.757708    14A1     0.788193     7B1     1.153522
       7B2     1.172519    15A1     1.224723     8B1     1.322658
       8B2     1.322668    16A1     1.473344     3A2     1.475333
      17A1     1.492094     9B1     1.533154     9B2     1.553541
      18A1     1.577151     4A2     1.577479    19A1     1.628644
      20A1     1.647946    10B1     1.684290    10B2     1.700428
      11B1     1.724722    11B2     1.725009     5A2     1.858121
      21A1     1.858268    22A1     1.882085    12B1     2.087932
      12B2     2.113324    23A1     2.438476    13B1     2.604112
      13B2     2.650750    14B1     2.966533    14B2     2.985132
      24A1     2.991013     6A2     2.991017    25A1     3.048514
      26A1     3.601298     7A2     3.648019    27A1     3.648019
      15B1     3.752163    15B2     3.795245    16B1     3.912904
      16B2     3.913129    28A1     3.995616    17B1     4.076530
      17B2     4.076940     8A2     4.133783    29A1     4.136954
      18B1     4.137174    18B2     4.174916    30A1     4.195300
       9A2     4.261563    31A1     4.264261    32A1     4.412883
      19B1     4.756784    19B2     4.798301    10A2     4.816629
      33A1     4.817165    34A1     5.143215    20B1     5.593165
      20B2     5.633363    35A1     5.901291    21B1     6.702351
      21B2     6.702352    22B1     7.733320    22B2     7.746898
      36A1     7.814430    11A2     7.815406    37A1     7.896754
      38A1     8.541378    12A2     8.541516    39A1     8.597493
      23B1     8.675525    23B2     8.691639    40A1     9.819432
      24B1     9.891016    24B2     9.918226    41A1    10.534323
      13A2    10.592890    42A1    10.592891    25B1    10.748524
      25B2    10.748867    26B1    10.813799    26B2    10.885269
      43A1    11.211202    14A2    11.211928    27B1    11.499827
      27B2    11.553433    44A1    11.599563    28B1    11.835516
      28B2    11.835656    15A2    12.002022    45A1    12.002211
      46A1    12.320941    29B1    12.779732    16A2    12.805680
      47A1    12.806113    29B2    12.833147    48A1    14.493715
      30B1    14.645106    30B2    14.695819    49A1    16.958011
      50A1    43.108051

    Beta Occupied:

       1A1   -20.597393     2A1    -1.237965     3A1    -0.644190
       1B2    -0.514747

    Beta Virtual:

       4A1     0.028711     1B1     0.060149     5A1     0.115224
       2B2     0.138806     6A1     0.165068     2B1     0.177373
       3B2     0.218142     7A1     0.223424     3B1     0.232541
       8A1     0.358931     1A2     0.481320     9A1     0.481462
      10A1     0.510055     4B2     0.554927     4B1     0.555591
       5B2     0.640086    11A1     0.648646     5B1     0.658110
       2A2     0.680138    12A1     0.680557    13A1     0.719444
       6B2     0.763790    14A1     0.798221     6B1     0.803404
       7B2     1.172769     7B1     1.182842    15A1     1.242149
       8B2     1.330375     8B1     1.330384    16A1     1.497532
       3A2     1.519803    17A1     1.521221     9B1     1.546851
       9B2     1.553295     4A2     1.586703    18A1     1.587311
      19A1     1.636917    20A1     1.651441    10B2     1.703125
      10B1     1.707042    11B2     1.726272    11B1     1.726320
      21A1     1.864134     5A2     1.864491    22A1     1.891870
      12B2     2.117399    12B1     2.122946    23A1     2.445629
      13B2     2.664355    13B1     2.693257    14B1     2.978779
      14B2     2.983857    24A1     2.999573     6A2     2.999611
      25A1     3.055964    26A1     3.617580     7A2     3.661546
      27A1     3.661547    15B1     3.804076    15B2     3.805731
      16B1     3.929177    16B2     3.929182    28A1     4.017413
      17B1     4.107288    17B2     4.107296     8A2     4.151465
      29A1     4.152019    18B1     4.168554    18B2     4.178586
      30A1     4.232903     9A2     4.330568    31A1     4.331168
      32A1     4.420154    19B1     4.801589    19B2     4.806859
      10A2     4.847460    33A1     4.847630    34A1     5.157378
      20B1     5.633142    20B2     5.640996    35A1     5.921538
      21B1     6.703865    21B2     6.703865    22B1     7.738279
      22B2     7.745818    36A1     7.820089    11A2     7.820848
      37A1     7.901319    38A1     8.542176    12A2     8.542384
      39A1     8.604771    23B1     8.680266    23B2     8.690729
      40A1     9.828160    24B1     9.910674    24B2     9.921747
      41A1    10.545187    13A2    10.628342    42A1    10.628342
      25B1    10.776991    25B2    10.776995    26B1    10.904752
      26B2    10.905108    43A1    11.232994    14A2    11.233305
      27B1    11.535125    27B2    11.561533    44A1    11.623450
      28B1    11.892399    28B2    11.892404    15A2    12.043953
      45A1    12.043953    46A1    12.339699    29B1    12.827714
      29B2    12.845695    16A2    12.872329    47A1    12.872386
      48A1    14.508842    30B1    14.690290    30B2    14.707074
      49A1    16.971059    50A1    43.131959

    Final Occupation by Irrep:
             A1    A2    B1    B2
    DOCC [     3,    0,    0,    1 ]
    SOCC [     0,    0,    1,    0 ]

  @UHF Final Energy:   -75.42701125411784

   => Energetics <=

    Nuclear Repulsion Energy =              4.4544642019740728
    One-Electron Energy =                -112.8258357216958814
    Two-Electron Energy =                  32.9443602656039616
    Total Energy =                        -75.4270112541178435

  UHF NO Occupations:
  HONO-2 :    2 A1 1.9992853
  HONO-1 :    3 A1 1.9978806
  HONO-0 :    1 B1 1.0000000
  LUNO+0 :    4 A1 0.0021194
  LUNO+1 :    5 A1 0.0007147
  LUNO+2 :    2 B2 0.0006182
  LUNO+3 :    6 A1 0.0000012

Computation Completed

Properties will be evaluated at   0.000000,   0.000000,   0.000000 [a0]

Properties computed using the SCF density matrix

  Nuclear Dipole Moment: [e a0]
     X:     0.0000      Y:     0.0000      Z:     0.8379

  Electronic Dipole Moment: [e a0]
     X:     0.0000      Y:     0.0000      Z:    -0.1525

  Dipole Moment: [e a0]
     X:     0.0000      Y:     0.0000      Z:     0.6854     Total:     0.6854

  Dipole Moment: [D]
     X:     0.0000      Y:     0.0000      Z:     1.7421     Total:     1.7421

*** tstop() called on c4-20.compute.lan at Tue Feb 23 13:22:19 2021
Module time:
	user time   =       3.51 seconds =       0.06 minutes
	system time =       0.25 seconds =       0.00 minutes
	total time  =          4 seconds =       0.07 minutes
Total time:
	user time   =      74.94 seconds =       1.25 minutes
	system time =       1.51 seconds =       0.03 minutes
	total time  =         77 seconds =       1.28 minutes

*** tstart() called on c4-20.compute.lan
*** at Tue Feb 23 13:22:19 2021

         ------------------------------------------------------------
                                   SCF GRAD
                          Rob Parrish, Justin Turney,
                       Andy Simmonett, and Alex Sokolov
         ------------------------------------------------------------

  ==> Geometry <==

    Molecular point group: c2v
    Full point group: C_inf_v

    Geometry (in Angstrom), charge = 0, multiplicity = 2:

       Center              X                  Y                   Z               Mass
    ------------   -----------------  -----------------  -----------------  -----------------
         O            0.000000000000     0.000000000000    -0.056332870648    15.994914619570
         H            0.000000000000     0.000000000000     0.894043536796     1.007825032230

  Nuclear repulsion =    4.454464201974073

  ==> Basis Set <==

  Basis Set: AUG-CC-PVQZ
    Blend: AUG-CC-PVQZ
    Number of shells: 34
    Number of basis function: 126
    Number of Cartesian functions: 160
    Spherical Harmonics?: true
    Max angular momentum: 4

  ==> DirectJKGrad: Integral-Direct SCF Gradients <==

    Gradient:                    1
    J tasked:                  Yes
    K tasked:                  Yes
    wK tasked:                  No
    Integrals threads:           1
    Schwarz Cutoff:          0E+00

  -Total Gradient:
     Atom            X                  Y                   Z
    ------   -----------------  -----------------  -----------------
       1        0.000000000000     0.000000000000     0.000000302987
       2        0.000000000000     0.000000000000    -0.000000302987

*** tstop() called on c4-20.compute.lan at Tue Feb 23 13:22:39 2021
Module time:
	user time   =      19.46 seconds =       0.32 minutes
	system time =       0.07 seconds =       0.00 minutes
	total time  =         20 seconds =       0.33 minutes
Total time:
	user time   =      94.40 seconds =       1.57 minutes
	system time =       1.58 seconds =       0.03 minutes
	total time  =         97 seconds =       1.62 minutes

			-----------------------------------------
			 OPTKING 2.0: for geometry optimizations
			  - R.A. King,  Bethel University
			-----------------------------------------

	Previous internal coordinate definitions found.
	---Fragment 1 Geometry and Gradient---
	 O           0.0000000000        0.0000000000       -0.1064536974
	 H           0.0000000000        0.0000000000        1.6894974288
	             0.0000000000        0.0000000000        0.0000003030
	             0.0000000000        0.0000000000       -0.0000003030

	---Fragment 1 Intrafragment Coordinates---
	 - Coordinate -           - BOHR/RAD -       - ANG/DEG -
	 R(1,2)           =         1.795951	       0.950376

	Current energy   :       -75.4270112541

	Energy change for the previous step:
		Projected    :        -0.0000000000
		Actual       :        -0.0000000000

	Performing BFGS update.
	Previous computed or guess Hessian on step 1.
	Denominators (dg)(dq) or (dq)(dq) are very small.
	 Skipping Hessian update for step 3.
	Denominators (dg)(dq) or (dq)(dq) are very small.
	 Skipping Hessian update for step 2.
	Steps to be used in Hessian update: 1
	Taking RFO optimization step.
	Going to follow RFO solution 1.
	Using RFO vector 1.
	Norm of target step-size    0.00000
	Projected energy change by RFO approximation:        -0.0000000000

	Back-transformation to cartesian coordinates...
	Successfully converged to displaced geometry.

	--- Internal Coordinate Step in ANG or DEG, aJ/ANG or AJ/DEG ---
	 ---------------------------------------------------------------------------
	   Coordinate                Previous        Force       Change         New
	   ----------                --------       ------       ------       ------
	    1 R(1,2)          =      0.950376     0.000002     0.000000     0.950377
	 ---------------------------------------------------------------------------
	Successfully symmetrized geometry.

  ==> Convergence Check <==

  Measures of convergence in internal coordinates in au.
  Criteria marked as inactive (o), active & met (*), and active & unmet ( ).
  ---------------------------------------------------------------------------------------------
   Step     Total Energy     Delta E     MAX Force     RMS Force      MAX Disp      RMS Disp
  ---------------------------------------------------------------------------------------------
    Convergence Criteria             o    2.00e-06 *    1.00e-06 *    6.00e-06 *    4.00e-06 *
  ---------------------------------------------------------------------------------------------
      4     -75.42701125   -4.93e-11 o    3.03e-07 *    3.03e-07 *    5.35e-07 *    5.35e-07 *  ~
  ---------------------------------------------------------------------------------------------

  **** Optimization is complete! (in 4 steps) ****

  ==> Optimization Summary <==

  Measures of convergence in internal coordinates in au.
  --------------------------------------------------------------------------------------------------------------- ~
   Step         Total Energy             Delta E       MAX Force       RMS Force        MAX Disp        RMS Disp  ~
  --------------------------------------------------------------------------------------------------------------- ~
      1     -75.426916494953    -75.426916494953      0.01030856      0.01030856      0.01857648      0.01857648  ~
      2     -75.427011209339     -0.000094714386      0.00022913      0.00022913      0.00040392      0.00040392  ~
      3     -75.427011254069     -0.000000044729      0.00000759      0.00000759      0.00001340      0.00001340  ~
      4     -75.427011254118     -0.000000000049      0.00000030      0.00000030      0.00000053      0.00000053  ~
  --------------------------------------------------------------------------------------------------------------- ~

	Writing optimization data to binary file.
	Final energy is    -75.4270112541178
	Final (previous) structure:
	Cartesian Geometry (in Angstrom)
	    O     0.0000000000   0.0000000000  -0.0563328704
	    H     0.0000000000   0.0000000000   0.8940435333
	Saving final (previous) structure.
			--------------------------
			 OPTKING Finished Execution
			--------------------------

    Final optimized geometry and variables:
    Molecular point group: c2v
    Full point group: C_inf_v

    Geometry (in Angstrom), charge = 0, multiplicity = 2:

    O
    H             1          R1

    R1        =    0.9503764074

	Removing binary optimization data file.
	Cleaning optimization helper files.

    Psi4 stopped on: Tuesday, 23 February 2021 01:22PM
    Psi4 wall time for execution: 0:01:36.41

*** Psi4 exiting successfully. Buy a developer a beer!
