                               Psi4 1.3.2 release

  ==> Input File <==

--------------------------------------------------------------------------
memory 4 GB

molecule  {
0 3
O   -1.626533831237   -0.021778869388    0.000000000000
H   -0.662852079059   -0.022992810772    0.000000000000
H   -1.860776131259    0.909760702736    0.000000000000
O    1.785545351016   -0.034095569492    0.000000000000
}
set {
basis aug-cc-pvtz
reference uhf
e_convergence 10
scf_type pk
freeze_core true
}

set ccenergy {
e_convergence 10
r_convergence 10
}

e = energy('ccsd(t)')

print_out('Stephenergy {}'.format(e))

--------------------------------------------------------------------------

    Molecular point group: cs

    Geometry (in Angstrom), charge = 0, multiplicity = 3:

       Center              X                  Y                   Z               Mass
    ------------   -----------------  -----------------  -----------------  -----------------
         O           -1.626533831237    -0.021778869388     0.000000000000    15.994914619570
         H           -0.662852079059    -0.022992810772     0.000000000000     1.007825032230
         H           -1.860776131259     0.909760702736     0.000000000000     1.007825032230
         O            1.785545351016    -0.034095569492     0.000000000000    15.994914619570

  Charge       = 0
  Multiplicity = 3
  Basis Set: AUG-CC-PVTZ
    Blend: AUG-CC-PVTZ

    Orbital Energies [Eh]
    ---------------------

    Alpha Occupied:

       1Ap   -20.731269     2Ap   -20.561280     3Ap    -1.440109
       4Ap    -1.345030     5Ap    -0.730994     1App   -0.730902
       6Ap    -0.709530     7Ap    -0.633319     8Ap    -0.577813
       2App   -0.503876

    Alpha Virtual:

       9Ap     0.034225    10Ap     0.053386    11Ap     0.128537
       3App    0.132322    12Ap     0.147477    13Ap     0.160451
      14Ap     0.182849     4App    0.183442    15Ap     0.207414
      16Ap     0.236347    17Ap     0.268972     5App    0.281209
      18Ap     0.290241     6App    0.318971    19Ap     0.362539
      20Ap     0.387444    21Ap     0.457536    22Ap     0.555516
       7App    0.602999    23Ap     0.607896    24Ap     0.643935
      25Ap     0.666315     8App    0.689163    26Ap     0.711916
       9App    0.733538    10App    0.747364    27Ap     0.758500
      28Ap     0.789630    11App    0.824739    29Ap     0.838948
      30Ap     0.854124    12App    0.876529    31Ap     0.914429
      32Ap     0.929970    13App    0.938708    33Ap     0.949867
      14App    0.974521    34Ap     0.977997    35Ap     1.039332
      36Ap     1.089300    15App    1.164400    37Ap     1.171284
      38Ap     1.215018    16App    1.215697    39Ap     1.266046
      40Ap     1.279729    17App    1.522377    41Ap     1.538650
      18App    1.591273    42Ap     1.610091    43Ap     1.805002
      44Ap     1.814069    19App    1.978334    45Ap     1.978391
      46Ap     2.004416    20App    2.009701    47Ap     2.019257
      21App    2.035389    48Ap     2.042033    22App    2.093224
      49Ap     2.127144    50Ap     2.142581    23App    2.167246
      51Ap     2.245435    24App    2.287198    52Ap     2.326839
      53Ap     2.374104    25App    2.429978    54Ap     2.454309
      26App    2.463687    55Ap     2.487392    56Ap     2.552344
      57Ap     2.655807    27App    2.723811    58Ap     2.726965
      59Ap     2.857655    60Ap     2.914078    28App    2.936376
      61Ap     3.685975    62Ap     3.820058    29App    4.028730
      30App    4.054165    63Ap     4.069220    31App    4.146182
      64Ap     4.186463    65Ap     4.267327    32App    4.295431
      66Ap     4.364237    33App    4.389795    34App    4.429623
      67Ap     4.430081    68Ap     4.563624    69Ap     4.773464
      70Ap     4.937536    35App    5.153334    71Ap     5.176930
      72Ap     5.299971    73Ap     5.368600    36App    5.525254
      74Ap     5.682297    75Ap     6.190608    37App    6.313654
      76Ap     6.313677    38App    6.367016    77Ap     6.368300
      39App    6.471680    78Ap     6.489340    79Ap     6.533533
      80Ap     6.598516    40App    6.717436    81Ap     6.813883
      41App    6.818190    82Ap     6.913086    42App    6.925668
      83Ap     6.953608    84Ap     7.040126    43App    7.141113
      44App    7.270903    85Ap     7.319494    45App    7.322791
      86Ap     7.350850    46App    7.414462    87Ap     7.638241
      88Ap     7.930793    89Ap     7.952810    90Ap     8.807793
      91Ap     9.029185    92Ap    16.333648

    Beta Occupied:

       1Ap   -20.652519     2Ap   -20.561359     3Ap    -1.345344
       4Ap    -1.097566     5Ap    -0.709298     6Ap    -0.580949
       7Ap    -0.540731     1App   -0.503917

    Beta Virtual:

       8Ap     0.034123     9Ap     0.047263     2App    0.049748
      10Ap     0.058578    11Ap     0.143367    12Ap     0.151618
       3App    0.160097    13Ap     0.179707    14Ap     0.207785
      15Ap     0.217555     4App    0.226538    16Ap     0.245251
      17Ap     0.271297     5App    0.281417    18Ap     0.292869
       6App    0.320622    19Ap     0.365895    20Ap     0.394736
      21Ap     0.458024    22Ap     0.557709     7App    0.635813
      23Ap     0.638387    24Ap     0.647015    25Ap     0.669776
       8App    0.703085    26Ap     0.712563     9App    0.734381
      10App    0.748460    27Ap     0.772822    28Ap     0.801113
      29Ap     0.845723    11App    0.860947    30Ap     0.912157
      12App    0.926879    31Ap     0.930692    32Ap     0.946361
      13App    0.948606    33Ap     0.968732    34Ap     1.009178
      14App    1.023071    35Ap     1.041056    36Ap     1.099087
      15App    1.168511    37Ap     1.174373    16App    1.224114
      38Ap     1.257526    39Ap     1.269880    40Ap     1.288817
      17App    1.523180    41Ap     1.550673    18App    1.592293
      42Ap     1.638094    43Ap     1.807974    44Ap     1.816325
      45Ap     2.015750    19App    2.016490    46Ap     2.016826
      20App    2.039697    47Ap     2.047749    21App    2.129816
      48Ap     2.169893    49Ap     2.177596    22App    2.179214
      50Ap     2.181621    23App    2.216841    51Ap     2.283480
      24App    2.288687    52Ap     2.335198    53Ap     2.390136
      25App    2.432977    54Ap     2.456257    26App    2.471672
      55Ap     2.494401    56Ap     2.558179    57Ap     2.663029
      27App    2.724428    58Ap     2.729362    59Ap     2.861412
      60Ap     2.916056    28App    2.937041    61Ap     3.686292
      62Ap     3.821255    29App    4.029260    30App    4.129289
      63Ap     4.176323    64Ap     4.240980    31App    4.241157
      65Ap     4.275953    32App    4.295461    66Ap     4.381007
      33App    4.390054    34App    4.431146    67Ap     4.460694
      68Ap     4.564330    69Ap     4.774664    70Ap     4.938310
      35App    5.153320    71Ap     5.177340    72Ap     5.300176
      73Ap     5.369384    36App    5.525257    74Ap     5.682627
      75Ap     6.191430    37App    6.422610    76Ap     6.422626
      38App    6.443107    77Ap     6.444560    78Ap     6.522266
      39App    6.527477    79Ap     6.556398    80Ap     6.645573
      40App    6.719980    81Ap     6.913596    41App    7.005478
      82Ap     7.006119    42App    7.034971    83Ap     7.061362
      84Ap     7.122900    43App    7.143114    44App    7.271061
      85Ap     7.319678    45App    7.323373    86Ap     7.351043
      46App    7.415009    87Ap     7.640435    88Ap     7.931213
      89Ap     7.953042    90Ap     8.810825    91Ap     9.103785
      92Ap    16.333969

    Final Occupation by Irrep:
             Ap   App
    DOCC [     7,    1 ]
    SOCC [     1,    1 ]

  @UHF Final Energy:  -150.87467220336208

   => Energetics <=

    Nuclear Repulsion Energy =             21.9275000669854556
    One-Electron Energy =                -251.6485393221675508
    Two-Electron Energy =                  78.8463670518199962
    Total Energy =                       -150.8746722033620813

  UHF NO Occupations:
  HONO-2 :    7 Ap 1.9970390
  HONO-1 :    8 Ap 1.0000000
  HONO-0 :    2App 1.0000000
  LUNO+0 :    9 Ap 0.0029610
  LUNO+1 :   10 Ap 0.0017371
  LUNO+2 :   11 Ap 0.0000024
  LUNO+3 :   12 Ap 0.0000007

Computation Completed

Properties will be evaluated at   0.000000,   0.000000,   0.000000 [a0]

Properties computed using the SCF density matrix

  Nuclear Dipole Moment: [e a0]
     X:    -2.3651      Y:     0.8310      Z:     0.0000

  Electronic Dipole Moment: [e a0]
     X:     2.9193      Y:    -0.2216      Z:     0.0000

  Dipole Moment: [e a0]
     X:     0.5543      Y:     0.6094      Z:     0.0000     Total:     0.8238

  Dipole Moment: [D]
     X:     1.4089      Y:     1.5490      Z:     0.0000     Total:     2.0939

*** tstop() called on c1-11.compute.lan at Tue Mar  9 14:35:06 2021
Module time:
	user time   =      65.52 seconds =       1.09 minutes
	system time =       3.26 seconds =       0.05 minutes
	total time  =          7 seconds =       0.12 minutes
Total time:
	user time   =      65.52 seconds =       1.09 minutes
	system time =       3.26 seconds =       0.05 minutes
	total time  =          7 seconds =       0.12 minutes
 MINTS: Wrapper to libmints.
   by Justin Turney

   Calculation information:
      Number of threads:                12
      Number of atoms:                   4
      Number of AO shells:              46
      Number of SO shells:              46
      Number of primitives:             82
      Number of atomic orbitals:       160
      Number of basis functions:       138

      Number of irreps:                  2
      Integral cutoff                 0.00e+00
      Number of functions per irrep: [  92   46 ]

 OEINTS: Overlap, kinetic, potential, dipole, and quadrupole integrals
         stored in file 35.

      Computing two-electron integrals...done
      Computed 22926316 non-zero two-electron integrals.
        Stored in file 33.

*** tstart() called on c1-11.compute.lan
*** at Tue Mar  9 14:35:09 2021

	Wfn Parameters:
	--------------------
	Wavefunction         = CCSD_T
	Number of irreps     = 2
	Number of MOs        = 138
	Number of active MOs = 136
	AO-Basis             = NONE
	Semicanonical        = false
	Reference            = UHF
	Print Level          = 1

	IRREP	# MOs	# FZDC	# DOCC	# SOCC	# VIRT	# FZVR
	-----	-----	------	------	------	------	------
	 Ap	   92	    2	    5	    1	    84	    0
	 App	   46	    0	    1	    1	    44	    0
	Transforming integrals...
	IWL integrals will be deleted.
	(OO|OO)...
	Presorting SO-basis two-electron integrals.
	Sorting File: SO Ints (nn|nn) nbuckets = 1
	Transforming the one-electron integrals and constructing Fock matrices
	Starting AA/AB first half-transformation.
	Sorting AA/AB half-transformed integrals.
	Starting BB first half-transformation.
	Sorting BB half-transformed integrals.
	First half integral transformation complete.
	Starting AA second half-transformation.
	Starting AB second half-transformation.
	Starting BB second half-transformation.
	Two-electron integral transformation complete.
	(OO|OV)...
	Starting AA second half-transformation.
	Starting AB second half-transformation.
	Starting BB second half-transformation.
	Two-electron integral transformation complete.
	(OO|VV)...
	Starting AA second half-transformation.
	Starting AB second half-transformation.
	Starting BB second half-transformation.
	Two-electron integral transformation complete.
	(OV|OO)...
	Starting AA/AB first half-transformation.
	Sorting AA/AB half-transformed integrals.
	Starting BB first half-transformation.
	Sorting BB half-transformed integrals.
	First half integral transformation complete.
	Starting AA second half-transformation.
	Starting AB second half-transformation.
	Starting BB second half-transformation.
	Two-electron integral transformation complete.
	(OV|OV)...
	Starting AA second half-transformation.
	Starting AB second half-transformation.
	Starting BB second half-transformation.
	Two-electron integral transformation complete.
	(OV|VV)...
	Starting AA second half-transformation.
	Starting AB second half-transformation.
	Starting BB second half-transformation.
	Two-electron integral transformation complete.
	(VV|OO)...
	Starting AA/AB first half-transformation.
	Sorting AA/AB half-transformed integrals.
	Starting BB first half-transformation.
	Sorting BB half-transformed integrals.
	First half integral transformation complete.
	Starting AA second half-transformation.
	Starting AB second half-transformation.
	Starting BB second half-transformation.
	Two-electron integral transformation complete.
	(VV|OV)...
	Starting AA second half-transformation.
	Starting AB second half-transformation.
	Starting BB second half-transformation.
	Two-electron integral transformation complete.
	(VV|VV)...
	Starting AA second half-transformation.
	Starting AB second half-transformation.
	Starting BB second half-transformation.
	Two-electron integral transformation complete.
	Frozen core energy     =   -125.46676757165676

	Size of irrep 0 of <AB|CD> integrals:     19.643 (MW) /    157.141 (MB)
	Size of irrep 1 of <AB|CD> integrals:     13.660 (MW) /    109.283 (MB)
	Total:                                    33.303 (MW) /    266.424 (MB)

	Size of irrep 0 of <ab|cd> integrals:     20.794 (MW) /    166.349 (MB)
	Size of irrep 1 of <ab|cd> integrals:     14.631 (MW) /    117.045 (MB)
	Total:                                    35.424 (MW) /    283.394 (MB)

	Size of irrep 0 of <Ab|Cd> integrals:     83.174 (MW) /    665.395 (MB)
	Size of irrep 1 of <Ab|Cd> integrals:     56.550 (MW) /    452.403 (MB)
	Total:                                   139.725 (MW) /   1117.798 (MB)

	Size of irrep 0 of <IA|BC> integrals:      5.323 (MW) /     42.586 (MB)
	Size of irrep 1 of <IA|BC> integrals:      3.193 (MW) /     25.547 (MB)
	Total:                                     8.517 (MW) /     68.133 (MB)

	Size of irrep 0 of <ia|bc> integrals:      4.348 (MW) /     34.780 (MB)
	Size of irrep 1 of <ia|bc> integrals:      2.372 (MW) /     18.972 (MB)
	Total:                                     6.719 (MW) /     53.752 (MB)

	Size of irrep 0 of <Ia|Bc> integrals:      5.472 (MW) /     43.776 (MB)
	Size of irrep 1 of <Ia|Bc> integrals:      3.309 (MW) /     26.470 (MB)
	Total:                                     8.781 (MW) /     70.246 (MB)

	Size of irrep 0 of <iA|bC> integrals:      4.232 (MW) /     33.853 (MB)
	Size of irrep 1 of <iA|bC> integrals:      2.286 (MW) /     18.289 (MB)
	Total:                                     6.518 (MW) /     52.142 (MB)

	Size of irrep 0 of tIjAb amplitudes:       0.292 (MW) /      2.335 (MB)
	Size of irrep 1 of tIjAb amplitudes:       0.120 (MW) /      0.963 (MB)
	Total:                                     0.412 (MW) /      3.297 (MB)

	Nuclear Rep. energy          =     21.92750006698546
	SCF energy                   =   -150.87467220336208
	One-electron energy          =    -83.22143058097141
	Two-electron (AA) energy     =      9.94284376268572
	Two-electron (BB) energy     =      5.29179759179737
	Two-electron (AB) energy     =     20.65138452779631
	Two-electron energy          =     35.88602588227940
	Reference energy             =   -150.87467220336333

*** tstop() called on c1-11.compute.lan at Tue Mar  9 14:35:51 2021
Module time:
	user time   =     105.71 seconds =       1.76 minutes
	system time =      25.73 seconds =       0.43 minutes
	total time  =         42 seconds =       0.70 minutes
Total time:
	user time   =     177.37 seconds =       2.96 minutes
	system time =      29.78 seconds =       0.50 minutes
	total time  =         52 seconds =       0.87 minutes
            **************************
            *                        *
            *        CCENERGY        *
            *                        *
            **************************

    Nuclear Rep. energy (wfn)     =   21.927500066985456
    SCF energy          (wfn)     = -150.874672203362081
    Reference energy    (file100) = -150.874672203363332

    Input parameters:
    -----------------
    Wave function   =     CCSD_T
    Reference wfn   =     UHF
    Brueckner       =     No
    Memory (Mbytes) =     4000.0
    Maxiter         =     50
    R_Convergence   =     1.0e-10
    E_Convergence   =     1.0e-10
    Restart         =     Yes
    DIIS            =     Yes
    AO Basis        =     NONE
    ABCD            =     NEW
    Cache Level     =     2
    Cache Type      =     LRU
    Print Level     =     1
    Num. of threads =     12
    # Amps to Print =     10
    Print MP2 Amps? =     No
    Analyze T2 Amps =     No
    Print Pair Ener =     No
    Local CC        =     No
    SCS-MP2         =     False
    SCSN-MP2        =     False
    SCS-CCSD        =     False

MP2 correlation energy -0.4161136043368545
                Solving CC Amplitude Equations
                ------------------------------
  Iter             Energy              RMS        T1Diag      D1Diag    New D1Diag    D2Diag
  ----     ---------------------    ---------   ----------  ----------  ----------   --------
     0        -0.416113604336855    0.000e+00    0.000000    0.000000    0.000000    0.000000
     1        -0.426888539254190    5.665e-02    0.010457    0.000000    0.000000    0.000000
     2        -0.434973148335530    1.686e-02    0.010937    0.000000    0.000000    0.000000
     3        -0.437089748448384    8.480e-03    0.012776    0.000000    0.000000    0.000000
     4        -0.436964236625645    2.519e-03    0.013126    0.000000    0.000000    0.000000
     5        -0.436952562789155    1.274e-03    0.013271    0.000000    0.000000    0.000000
     6        -0.436978589563483    5.028e-04    0.013285    0.000000    0.000000    0.000000
     7        -0.436982704017222    2.283e-04    0.013274    0.000000    0.000000    0.000000
     8        -0.436983470045266    7.684e-05    0.013268    0.000000    0.000000    0.000000
     9        -0.436984706364567    4.677e-05    0.013268    0.000000    0.000000    0.000000
    10        -0.436983506634103    3.833e-05    0.013268    0.000000    0.000000    0.000000
    11        -0.436983604469479    3.684e-05    0.013268    0.000000    0.000000    0.000000
    12        -0.436983460751304    3.617e-05    0.013269    0.000000    0.000000    0.000000
    13        -0.436983376896719    3.566e-05    0.013270    0.000000    0.000000    0.000000
    14        -0.436983841712411    3.470e-05    0.013276    0.000000    0.000000    0.000000
    15        -0.436983907267946    3.221e-05    0.013291    0.000000    0.000000    0.000000
    16        -0.436983861618518    2.635e-05    0.013366    0.000000    0.000000    0.000000
    17        -0.436983807431847    1.517e-05    0.013419    0.000000    0.000000    0.000000
    18        -0.436983730151669    6.800e-06    0.013441    0.000000    0.000000    0.000000
    19        -0.436983901499082    2.984e-06    0.013446    0.000000    0.000000    0.000000
    20        -0.436983989623759    1.415e-06    0.013447    0.000000    0.000000    0.000000
    21        -0.436983994971343    5.814e-07    0.013447    0.000000    0.000000    0.000000
    22        -0.436983995173963    2.264e-07    0.013447    0.000000    0.000000    0.000000
    23        -0.436983995474180    9.848e-08    0.013447    0.000000    0.000000    0.000000
    24        -0.436983995281651    4.179e-08    0.013447    0.000000    0.000000    0.000000
    25        -0.436983995985268    2.166e-08    0.013447    0.000000    0.000000    0.000000
    26        -0.436983996361205    7.295e-09    0.013447    0.000000    0.000000    0.000000
    27        -0.436983996437874    2.369e-09    0.013447    0.000000    0.000000    0.000000
    28        -0.436983996465761    1.173e-09    0.013447    0.000000    0.000000    0.000000
    29        -0.436983996465249    7.396e-10    0.013447    0.000000    0.000000    0.000000
    30        -0.436983996454979    5.349e-10    0.013447    0.000000    0.000000    0.000000
    31        -0.436983996449496    4.555e-10    0.013447    0.000000    0.000000    0.000000
    32        -0.436983996447532    4.324e-10    0.013447    0.000000    0.000000    0.000000
    33        -0.436983996446259    4.195e-10    0.013447    0.000000    0.000000    0.000000
    34        -0.436983996445382    3.893e-10    0.013447    0.000000    0.000000    0.000000
    35        -0.436983996444640    3.088e-10    0.013447    0.000000    0.000000    0.000000
    36        -0.436983996445585    1.834e-10    0.013447    0.000000    0.000000    0.000000

      * MP2 total energy                      = -151.290785807700189
      * CCSD total energy                     = -151.311656199807601
      * CCSD(T) total energy                     = -151.323932414148658
*** Psi4 exiting successfully. Buy a developer a beer!
