                               Psi4 1.3.2 release

  ==> Input File <==

--------------------------------------------------------------------------
memory 4 GB

molecule  {
0 1
O    0.000000000000    0.000000000000   -0.066128900300
H    0.000000000000   -0.758684214200    0.524756818400
H   -0.000000000000    0.758684214200    0.524756818400
}
set {
basis aug-cc-pvtz
reference uhf
e_convergence 10
scf_type pk
freeze_core true
}

set ccenergy {
e_convergence 10
r_convergence 10
}

e = energy('ccsd(t)')

print_out('Stephenergy {}'.format(e))

--------------------------------------------------------------------------

    Molecular point group: c2v

    Geometry (in Angstrom), charge = 0, multiplicity = 1:

       Center              X                  Y                   Z               Mass
    ------------   -----------------  -----------------  -----------------  -----------------
         O            0.000000000000     0.000000000000    -0.066128900336    15.994914619570
         H            0.000000000000    -0.758684214200     0.524756818364     1.007825032230
         H           -0.000000000000     0.758684214200     0.524756818364     1.007825032230

  Charge       = 0
  Multiplicity = 1
  Basis Set: AUG-CC-PVTZ
    Blend: AUG-CC-PVTZ

    Orbital Energies [Eh]
    ---------------------

    Alpha Occupied:

       1A1   -20.568119     2A1    -1.351579     1B2    -0.714781
       3A1    -0.584767     1B1    -0.510099

    Alpha Virtual:

       4A1     0.029367     2B2     0.047688     5A1     0.135896
       2B1     0.158787     6A1     0.175139     3B2     0.183067
       4B2     0.227116     7A1     0.244898     1A2     0.265365
       3B1     0.300058     8A1     0.310161     5B2     0.365760
       9A1     0.437267     6B2     0.465976     7B2     0.599207
      10A1     0.658367    11A1     0.707987     2A2     0.722598
       4B1     0.731674    12A1     0.830353     5B1     0.846234
      13A1     0.892222     8B2     0.912406     6B1     0.918376
       3A2     0.922294     9B2     0.930694    14A1     0.961469
      15A1     1.020713    10B2     1.042985     7B1     1.082476
      11B2     1.108390     4A2     1.176007    16A1     1.181595
      12B2     1.261103     5A2     1.509963    17A1     1.535549
       8B1     1.582534    18A1     1.805341    13B2     1.819442
      14B2     1.983644    19A1     2.116775     9B1     2.262504
       6A2     2.315558    20A1     2.326720    21A1     2.418092
      10B1     2.420328    15B2     2.442979    22A1     2.479395
      16B2     2.677637    11B1     2.698147    23A1     2.770147
      17B2     2.815844     7A2     2.883621    18B2     3.651357
      24A1     3.740804     8A2     4.016896    12B1     4.082176
      25A1     4.164001    19B2     4.245933    13B1     4.287480
      26A1     4.374603     9A2     4.376864    14B1     4.404048
      20B2     4.516319    27A1     4.723515    21B2     4.840674
      22B2     5.146197    10A2     5.146650    23B2     5.249189
      28A1     5.320570    15B1     5.518989    29A1     5.661699
      30A1     6.175649    24B2     6.513412    16B1     6.708696
      31A1     6.895598    17B1     7.130864    18B1     7.250537
      25B2     7.298707    11A2     7.310285    32A1     7.327550
      12A2     7.354198    33A1     7.529210    34A1     7.896152
      26B2     7.919635    27B2     8.796457    35A1    15.696194

    Beta Occupied:

       1A1   -20.568119     2A1    -1.351579     1B2    -0.714781
       3A1    -0.584767     1B1    -0.510099

    Beta Virtual:

       4A1     0.029367     2B2     0.047688     5A1     0.135896
       2B1     0.158787     6A1     0.175139     3B2     0.183067
       4B2     0.227116     7A1     0.244898     1A2     0.265365
       3B1     0.300058     8A1     0.310161     5B2     0.365760
       9A1     0.437267     6B2     0.465976     7B2     0.599207
      10A1     0.658367    11A1     0.707987     2A2     0.722598
       4B1     0.731674    12A1     0.830353     5B1     0.846234
      13A1     0.892222     8B2     0.912406     6B1     0.918376
       3A2     0.922294     9B2     0.930694    14A1     0.961469
      15A1     1.020713    10B2     1.042985     7B1     1.082476
      11B2     1.108390     4A2     1.176007    16A1     1.181595
      12B2     1.261103     5A2     1.509963    17A1     1.535549
       8B1     1.582534    18A1     1.805341    13B2     1.819442
      14B2     1.983644    19A1     2.116775     9B1     2.262504
       6A2     2.315558    20A1     2.326720    21A1     2.418092
      10B1     2.420328    15B2     2.442979    22A1     2.479395
      16B2     2.677637    11B1     2.698147    23A1     2.770147
      17B2     2.815844     7A2     2.883621    18B2     3.651357
      24A1     3.740804     8A2     4.016896    12B1     4.082176
      25A1     4.164001    19B2     4.245933    13B1     4.287480
      26A1     4.374603     9A2     4.376864    14B1     4.404048
      20B2     4.516319    27A1     4.723515    21B2     4.840674
      22B2     5.146197    10A2     5.146650    23B2     5.249189
      28A1     5.320570    15B1     5.518989    29A1     5.661699
      30A1     6.175649    24B2     6.513412    16B1     6.708696
      31A1     6.895598    17B1     7.130864    18B1     7.250537
      25B2     7.298707    11A2     7.310285    32A1     7.327550
      12A2     7.354198    33A1     7.529210    34A1     7.896152
      26B2     7.919635    27B2     8.796457    35A1    15.696194

    Final Occupation by Irrep:
             A1    A2    B1    B2
    DOCC [     3,    0,    1,    1 ]
    SOCC [     0,    0,    0,    0 ]

  @UHF Final Energy:   -76.06026534691972

   => Energetics <=

    Nuclear Repulsion Energy =              9.1533438938584553
    One-Electron Energy =                -122.9685293605979126
    Two-Electron Energy =                  37.7549201198197224
    Total Energy =                        -76.0602653469197207

  UHF NO Occupations:
  HONO-2 :    2 A1 2.0000000
  HONO-1 :    1 B1 2.0000000
  HONO-0 :    3 A1 2.0000000
  LUNO+0 :    4 A1 0.0000000
  LUNO+1 :    2 B2 0.0000000
  LUNO+2 :    5 A1 0.0000000
  LUNO+3 :    2 B1 0.0000000

Computation Completed

Properties will be evaluated at   0.000000,   0.000000,   0.000000 [a0]

Properties computed using the SCF density matrix

  Nuclear Dipole Moment: [e a0]
     X:     0.0000      Y:     0.0000      Z:     0.9836

  Electronic Dipole Moment: [e a0]
     X:     0.0000      Y:     0.0000      Z:    -0.2000

  Dipole Moment: [e a0]
     X:     0.0000      Y:     0.0000      Z:     0.7836     Total:     0.7836

  Dipole Moment: [D]
     X:     0.0000      Y:     0.0000      Z:     1.9918     Total:     1.9918

*** tstop() called on c2-13.compute.lan at Mon Mar  8 09:44:21 2021
Module time:
	user time   =      14.38 seconds =       0.24 minutes
	system time =       0.82 seconds =       0.01 minutes
	total time  =          2 seconds =       0.03 minutes
Total time:
	user time   =      14.38 seconds =       0.24 minutes
	system time =       0.82 seconds =       0.01 minutes
	total time  =          2 seconds =       0.03 minutes
 MINTS: Wrapper to libmints.
   by Justin Turney

   Calculation information:
      Number of threads:                12
      Number of atoms:                   3
      Number of AO shells:              32
      Number of SO shells:              23
      Number of primitives:             52
      Number of atomic orbitals:       105
      Number of basis functions:        92

      Number of irreps:                  4
      Integral cutoff                 0.00e+00
      Number of functions per irrep: [  35   12   18   27 ]

 OEINTS: Overlap, kinetic, potential, dipole, and quadrupole integrals
         stored in file 35.

      Computing two-electron integrals...done
      Computed 2227059 non-zero two-electron integrals.
        Stored in file 33.

*** tstart() called on c2-13.compute.lan
*** at Mon Mar  8 09:44:22 2021

	Wfn Parameters:
	--------------------
	Wavefunction         = CCSD_T
	Number of irreps     = 4
	Number of MOs        = 92
	Number of active MOs = 91
	AO-Basis             = NONE
	Semicanonical        = false
	Reference            = UHF
	Print Level          = 1

	IRREP	# MOs	# FZDC	# DOCC	# SOCC	# VIRT	# FZVR
	-----	-----	------	------	------	------	------
	 A1	   35	    1	    2	    0	    32	    0
	 A2	   12	    0	    0	    0	    12	    0
	 B1	   18	    0	    1	    0	    17	    0
	 B2	   27	    0	    1	    0	    26	    0
	Transforming integrals...
	IWL integrals will be deleted.
	(OO|OO)...
	Presorting SO-basis two-electron integrals.
	Sorting File: SO Ints (nn|nn) nbuckets = 1
	Transforming the one-electron integrals and constructing Fock matrices
	Starting AA/AB first half-transformation.
	Sorting AA/AB half-transformed integrals.
	Starting BB first half-transformation.
	Sorting BB half-transformed integrals.
	First half integral transformation complete.
	Starting AA second half-transformation.
	Starting AB second half-transformation.
	Starting BB second half-transformation.
	Two-electron integral transformation complete.
	(OO|OV)...
	Starting AA second half-transformation.
	Starting AB second half-transformation.
	Starting BB second half-transformation.
	Two-electron integral transformation complete.
	(OO|VV)...
	Starting AA second half-transformation.
	Starting AB second half-transformation.
	Starting BB second half-transformation.
	Two-electron integral transformation complete.
	(OV|OO)...
	Starting AA/AB first half-transformation.
	Sorting AA/AB half-transformed integrals.
	Starting BB first half-transformation.
	Sorting BB half-transformed integrals.
	First half integral transformation complete.
	Starting AA second half-transformation.
	Starting AB second half-transformation.
	Starting BB second half-transformation.
	Two-electron integral transformation complete.
	(OV|OV)...
	Starting AA second half-transformation.
	Starting AB second half-transformation.
	Starting BB second half-transformation.
	Two-electron integral transformation complete.
	(OV|VV)...
	Starting AA second half-transformation.
	Starting AB second half-transformation.
	Starting BB second half-transformation.
	Two-electron integral transformation complete.
	(VV|OO)...
	Starting AA/AB first half-transformation.
	Sorting AA/AB half-transformed integrals.
	Starting BB first half-transformation.
	Sorting BB half-transformed integrals.
	First half integral transformation complete.
	Starting AA second half-transformation.
	Starting AB second half-transformation.
	Starting BB second half-transformation.
	Two-electron integral transformation complete.
	(VV|OV)...
	Starting AA second half-transformation.
	Starting AB second half-transformation.
	Starting BB second half-transformation.
	Two-electron integral transformation complete.
	(VV|VV)...
	Starting AA second half-transformation.
	Starting AB second half-transformation.
	Starting BB second half-transformation.
	Two-electron integral transformation complete.
	Frozen core energy     =    -61.30660912604071

	Size of irrep 0 of <AB|CD> integrals:      1.047 (MW) /      8.372 (MB)
	Size of irrep 1 of <AB|CD> integrals:      0.682 (MW) /      5.458 (MB)
	Size of irrep 2 of <AB|CD> integrals:      0.733 (MW) /      5.862 (MB)
	Size of irrep 3 of <AB|CD> integrals:      1.073 (MW) /      8.586 (MB)
	Total:                                     3.535 (MW) /     28.279 (MB)

	Size of irrep 0 of <ab|cd> integrals:      1.047 (MW) /      8.372 (MB)
	Size of irrep 1 of <ab|cd> integrals:      0.682 (MW) /      5.458 (MB)
	Size of irrep 2 of <ab|cd> integrals:      0.733 (MW) /      5.862 (MB)
	Size of irrep 3 of <ab|cd> integrals:      1.073 (MW) /      8.586 (MB)
	Total:                                     3.535 (MW) /     28.279 (MB)

	Size of irrep 0 of <Ab|Cd> integrals:      4.550 (MW) /     36.398 (MB)
	Size of irrep 1 of <Ab|Cd> integrals:      2.729 (MW) /     21.833 (MB)
	Size of irrep 2 of <Ab|Cd> integrals:      2.931 (MW) /     23.448 (MB)
	Size of irrep 3 of <Ab|Cd> integrals:      4.293 (MW) /     34.345 (MB)
	Total:                                    14.503 (MW) /    116.023 (MB)

	Size of irrep 0 of <IA|BC> integrals:      0.228 (MW) /      1.826 (MB)
	Size of irrep 1 of <IA|BC> integrals:      0.111 (MW) /      0.885 (MB)
	Size of irrep 2 of <IA|BC> integrals:      0.134 (MW) /      1.068 (MB)
	Size of irrep 3 of <IA|BC> integrals:      0.199 (MW) /      1.591 (MB)
	Total:                                     0.671 (MW) /      5.371 (MB)

	Size of irrep 0 of <ia|bc> integrals:      0.228 (MW) /      1.826 (MB)
	Size of irrep 1 of <ia|bc> integrals:      0.111 (MW) /      0.885 (MB)
	Size of irrep 2 of <ia|bc> integrals:      0.134 (MW) /      1.068 (MB)
	Size of irrep 3 of <ia|bc> integrals:      0.199 (MW) /      1.591 (MB)
	Total:                                     0.671 (MW) /      5.371 (MB)

	Size of irrep 0 of <Ia|Bc> integrals:      0.228 (MW) /      1.826 (MB)
	Size of irrep 1 of <Ia|Bc> integrals:      0.111 (MW) /      0.885 (MB)
	Size of irrep 2 of <Ia|Bc> integrals:      0.134 (MW) /      1.068 (MB)
	Size of irrep 3 of <Ia|Bc> integrals:      0.199 (MW) /      1.591 (MB)
	Total:                                     0.671 (MW) /      5.371 (MB)

	Size of irrep 0 of <iA|bC> integrals:      0.228 (MW) /      1.826 (MB)
	Size of irrep 1 of <iA|bC> integrals:      0.111 (MW) /      0.885 (MB)
	Size of irrep 2 of <iA|bC> integrals:      0.134 (MW) /      1.068 (MB)
	Size of irrep 3 of <iA|bC> integrals:      0.199 (MW) /      1.591 (MB)
	Total:                                     0.671 (MW) /      5.371 (MB)

	Size of irrep 0 of tIjAb amplitudes:       0.013 (MW) /      0.102 (MB)
	Size of irrep 1 of tIjAb amplitudes:       0.003 (MW) /      0.026 (MB)
	Size of irrep 2 of tIjAb amplitudes:       0.007 (MW) /      0.055 (MB)
	Size of irrep 3 of tIjAb amplitudes:       0.008 (MW) /      0.066 (MB)
	Total:                                     0.031 (MW) /      0.250 (MB)

	Nuclear Rep. energy          =      9.15334389385846
	SCF energy                   =    -76.06026534691972
	One-electron energy          =    -41.49154780991965
	Two-electron (AA) energy     =      3.41818869475824
	Two-electron (BB) energy     =      3.41818869475824
	Two-electron (AB) energy     =     10.74817030566563
	Two-electron energy          =     17.58454769518212
	Reference energy             =    -76.06026534691981

*** tstop() called on c2-13.compute.lan at Mon Mar  8 09:44:43 2021
Module time:
	user time   =     186.37 seconds =       3.11 minutes
	system time =      11.38 seconds =       0.19 minutes
	total time  =         21 seconds =       0.35 minutes
Total time:
	user time   =     204.76 seconds =       3.41 minutes
	system time =      12.50 seconds =       0.21 minutes
	total time  =         24 seconds =       0.40 minutes
            **************************
            *                        *
            *        CCENERGY        *
            *                        *
            **************************

    Nuclear Rep. energy (wfn)     =    9.153343893858455
    SCF energy          (wfn)     =  -76.060265346919721
    Reference energy    (file100) =  -76.060265346919806

    Input parameters:
    -----------------
    Wave function   =     CCSD_T
    Reference wfn   =     UHF
    Brueckner       =     No
    Memory (Mbytes) =     4000.0
    Maxiter         =     50
    R_Convergence   =     1.0e-10
    E_Convergence   =     1.0e-10
    Restart         =     Yes
    DIIS            =     Yes
    AO Basis        =     NONE
    ABCD            =     NEW
    Cache Level     =     2
    Cache Type      =     LRU
    Print Level     =     1
    Num. of threads =     12
    # Amps to Print =     10
    Print MP2 Amps? =     No
    Analyze T2 Amps =     No
    Print Pair Ener =     No
    Local CC        =     No
    SCS-MP2         =     False
    SCSN-MP2        =     False
    SCS-CCSD        =     False

MP2 correlation energy -0.2687267751497003
                Solving CC Amplitude Equations
                ------------------------------
  Iter             Energy              RMS        T1Diag      D1Diag    New D1Diag    D2Diag
  ----     ---------------------    ---------   ----------  ----------  ----------   --------
     0        -0.268726775149700    0.000e+00    0.000000    0.000000    0.000000    0.000000
     1        -0.267211272256764    4.771e-02    0.012109    0.000000    0.000000    0.000000
     2        -0.272290020901272    1.315e-02    0.011884    0.000000    0.000000    0.000000
     3        -0.273510636683231    6.179e-03    0.013739    0.000000    0.000000    0.000000
     4        -0.273405986906996    1.243e-03    0.014063    0.000000    0.000000    0.000000
     5        -0.273389673943529    4.583e-04    0.014195    0.000000    0.000000    0.000000
     6        -0.273390556225568    1.142e-04    0.014225    0.000000    0.000000    0.000000
     7        -0.273389336977089    3.868e-05    0.014231    0.000000    0.000000    0.000000
     8        -0.273389378849351    1.059e-05    0.014233    0.000000    0.000000    0.000000
     9        -0.273389426015665    3.260e-06    0.014233    0.000000    0.000000    0.000000
    10        -0.273389305547950    1.318e-06    0.014233    0.000000    0.000000    0.000000
    11        -0.273389323364695    4.543e-07    0.014233    0.000000    0.000000    0.000000
    12        -0.273389318371352    1.696e-07    0.014233    0.000000    0.000000    0.000000
    13        -0.273389320149115    4.996e-08    0.014233    0.000000    0.000000    0.000000
    14        -0.273389321346047    1.325e-08    0.014233    0.000000    0.000000    0.000000
    15        -0.273389321396158    4.048e-09    0.014233    0.000000    0.000000    0.000000
    16        -0.273389321397977    1.236e-09    0.014233    0.000000    0.000000    0.000000
    17        -0.273389321406671    4.248e-10    0.014233    0.000000    0.000000    0.000000
    18        -0.273389321403629    1.100e-10    0.014233    0.000000    0.000000    0.000000
    19        -0.273389321403255    3.315e-11    0.014233    0.000000    0.000000    0.000000

    Iterations converged.

    Largest TIA Amplitudes:
              2  44        -0.0151292869
              2  45        -0.0130452375
              1   1         0.0085202920
              1   4        -0.0078079503
              3  73         0.0054437987
              2  54         0.0042784064
              3  69         0.0038011605
              2  47        -0.0036763183
              3  80         0.0036067117
              1  23         0.0033971736

    Largest Tia Amplitudes:
              2  44        -0.0151292869
              2  45        -0.0130452375
              1   1         0.0085202920
              1   4        -0.0078079503
              3  73         0.0054437987
              2  54         0.0042784064
              3  69         0.0038011605
              2  47        -0.0036763183
              3  80         0.0036067117
              1  23         0.0033971736

    Largest TIJAB Amplitudes:
      2   1  46   7        -0.0095662446
      3   1  66   6        -0.0093780264

      * MP2 total energy                      =  -76.328992122069508
      * CCSD total energy                     =  -76.333654668323064
      * CCSD(T) total energy                     =  -76.342325818038390
*** Psi4 exiting successfully. Buy a developer a beer!
