                               Psi4 1.3.2 release

  ==> Input File <==

--------------------------------------------------------------------------
memory 4 GB

molecule  {
0 3
O   -1.626052396200   -0.021773619000    0.000000000000
H   -0.663279771000   -0.022990669100    0.000000000000
H   -1.861200811400    0.909766712400    0.000000000000
O    1.785117623200   -0.034101333500    0.000000000000
}
set {
basis aug-cc-pvtz
reference uhf
e_convergence 10
scf_type pk
freeze_core true
}

set ccenergy {
e_convergence 10
r_convergence 10
}

e = energy('ccsd(t)')

print_out('Stephenergy {}'.format(e))

--------------------------------------------------------------------------

    Molecular point group: cs

    Geometry (in Angstrom), charge = 0, multiplicity = 3:

       Center              X                  Y                   Z               Mass
    ------------   -----------------  -----------------  -----------------  -----------------
         O           -1.626052396214    -0.021773618994     0.000000000000    15.994914619570
         H           -0.663279771014    -0.022990669094     0.000000000000     1.007825032230
         H           -1.861200811414     0.909766712406     0.000000000000     1.007825032230
         O            1.785117623186    -0.034101333494     0.000000000000    15.994914619570

  Charge       = 0
  Multiplicity = 3
  Basis Set: AUG-CC-PVTZ
    Blend: AUG-CC-PVTZ

    Orbital Energies [Eh]
    ---------------------

    Alpha Occupied:

       1Ap   -20.731245     2Ap   -20.561203     3Ap    -1.440086
       4Ap    -1.345170     5Ap    -0.730971     1App   -0.730879
       6Ap    -0.709816     7Ap    -0.633295     8Ap    -0.577786
       2App   -0.503894

    Alpha Virtual:

       9Ap     0.034224    10Ap     0.053386    11Ap     0.128541
       3App    0.132321    12Ap     0.147489    13Ap     0.160452
      14Ap     0.182827     4App    0.183435    15Ap     0.207422
      16Ap     0.236422    17Ap     0.268948     5App    0.281195
      18Ap     0.290298     6App    0.319039    19Ap     0.362718
      20Ap     0.387452    21Ap     0.457479    22Ap     0.555511
       7App    0.603015    23Ap     0.607915    24Ap     0.643993
      25Ap     0.666347     8App    0.689232    26Ap     0.711977
       9App    0.733527    10App    0.747265    27Ap     0.758501
      28Ap     0.789695    11App    0.824758    29Ap     0.839031
      30Ap     0.854152    12App    0.876550    31Ap     0.914436
      32Ap     0.929996    13App    0.938759    33Ap     0.949876
      14App    0.974444    34Ap     0.978182    35Ap     1.039268
      36Ap     1.089529    15App    1.164420    37Ap     1.171439
      38Ap     1.215036    16App    1.215935    39Ap     1.265795
      40Ap     1.279915    17App    1.522457    41Ap     1.538928
      18App    1.591621    42Ap     1.610398    43Ap     1.804953
      44Ap     1.813799    19App    1.978354    45Ap     1.978411
      46Ap     2.004356    20App    2.009723    47Ap     2.019230
      21App    2.035407    48Ap     2.042051    22App    2.093237
      49Ap     2.127136    50Ap     2.142640    23App    2.167316
      51Ap     2.245494    24App    2.287120    52Ap     2.327025
      53Ap     2.374104    25App    2.430079    54Ap     2.453772
      26App    2.463926    55Ap     2.487491    56Ap     2.552650
      57Ap     2.657049    27App    2.723736    58Ap     2.726710
      59Ap     2.858162    60Ap     2.914714    28App    2.936380
      61Ap     3.685942    62Ap     3.821113    29App    4.028781
      30App    4.054210    63Ap     4.069234    31App    4.146659
      64Ap     4.187463    65Ap     4.267428    32App    4.296227
      66Ap     4.364401    33App    4.389985    34App    4.429882
      67Ap     4.430336    68Ap     4.563525    69Ap     4.773399
      70Ap     4.938068    35App    5.154431    71Ap     5.176984
      72Ap     5.300869    73Ap     5.370427    36App    5.526091
      74Ap     5.683708    75Ap     6.190701    37App    6.313676
      76Ap     6.313699    38App    6.367039    77Ap     6.368334
      39App    6.471705    78Ap     6.489301    79Ap     6.533691
      80Ap     6.598635    40App    6.717550    81Ap     6.813902
      41App    6.818227    82Ap     6.913126    42App    6.925733
      83Ap     6.953642    84Ap     7.040167    43App    7.141589
      44App    7.270993    85Ap     7.320599    45App    7.323518
      86Ap     7.351082    46App    7.414664    87Ap     7.639654
      88Ap     7.932215    89Ap     7.953369    90Ap     8.809227
      91Ap     9.029802    92Ap    16.348109

    Beta Occupied:

       1Ap   -20.652495     2Ap   -20.561282     3Ap    -1.345484
       4Ap    -1.097543     5Ap    -0.709589     6Ap    -0.580908
       7Ap    -0.540717     1App   -0.503934

    Beta Virtual:

       8Ap     0.034122     9Ap     0.047279     2App    0.049768
      10Ap     0.058579    11Ap     0.143369    12Ap     0.151623
       3App    0.160073    13Ap     0.179683    14Ap     0.207783
      15Ap     0.217577     4App    0.226555    16Ap     0.245330
      17Ap     0.271280     5App    0.281402    18Ap     0.292922
       6App    0.320693    19Ap     0.366074    20Ap     0.394748
      21Ap     0.457969    22Ap     0.557701     7App    0.635828
      23Ap     0.638412    24Ap     0.647064    25Ap     0.669800
       8App    0.703159    26Ap     0.712626     9App    0.734375
      10App    0.748353    27Ap     0.772836    28Ap     0.801175
      29Ap     0.845792    11App    0.860934    30Ap     0.912177
      12App    0.926919    31Ap     0.930711    32Ap     0.946360
      13App    0.948625    33Ap     0.968869    34Ap     1.009278
      14App    1.023041    35Ap     1.041007    36Ap     1.099314
      15App    1.168515    37Ap     1.174521    16App    1.224367
      38Ap     1.257484    39Ap     1.269688    40Ap     1.288997
      17App    1.523253    41Ap     1.550983    18App    1.592647
      42Ap     1.638359    43Ap     1.807936    44Ap     1.816050
      45Ap     2.015633    19App    2.016510    46Ap     2.016801
      20App    2.039716    47Ap     2.047762    21App    2.129809
      48Ap     2.170059    49Ap     2.177589    22App    2.179228
      50Ap     2.181640    23App    2.216946    51Ap     2.283534
      24App    2.288610    52Ap     2.335323    53Ap     2.390176
      25App    2.433056    54Ap     2.455683    26App    2.471921
      55Ap     2.494522    56Ap     2.558478    57Ap     2.664216
      27App    2.724355    58Ap     2.729136    59Ap     2.861951
      60Ap     2.916690    28App    2.937041    61Ap     3.686256
      62Ap     3.822308    29App    4.029310    30App    4.129737
      63Ap     4.177128    31App    4.241236    64Ap     4.241268
      65Ap     4.275970    32App    4.296257    66Ap     4.381289
      33App    4.390243    34App    4.431403    67Ap     4.460833
      68Ap     4.564232    69Ap     4.774600    70Ap     4.938840
      35App    5.154417    71Ap     5.177391    72Ap     5.301072
      73Ap     5.371220    36App    5.526094    74Ap     5.684041
      75Ap     6.191522    37App    6.422632    76Ap     6.422648
      38App    6.443128    77Ap     6.444595    78Ap     6.522267
      39App    6.527501    79Ap     6.556519    80Ap     6.645688
      40App    6.720105    81Ap     6.913618    41App    7.005506
      82Ap     7.006157    42App    7.035072    83Ap     7.061395
      84Ap     7.122937    43App    7.143552    44App    7.271144
      85Ap     7.320770    45App    7.324114    86Ap     7.351288
      46App    7.415206    87Ap     7.641861    88Ap     7.932624
      89Ap     7.953620    90Ap     8.812234    91Ap     9.104401
      92Ap    16.348431

    Final Occupation by Irrep:
             Ap   App
    DOCC [     7,    1 ]
    SOCC [     1,    1 ]

  @UHF Final Energy:  -150.87470586983142

   => Energetics <=

    Nuclear Repulsion Energy =             21.9332746278607793
    One-Electron Energy =                -251.6596653622132180
    Two-Electron Energy =                  78.8516848645210047
    Total Energy =                       -150.8747058698314163

  UHF NO Occupations:
  HONO-2 :    7 Ap 1.9970391
  HONO-1 :    8 Ap 1.0000000
  HONO-0 :    2App 1.0000000
  LUNO+0 :    9 Ap 0.0029609
  LUNO+1 :   10 Ap 0.0017369
  LUNO+2 :   11 Ap 0.0000024
  LUNO+3 :   12 Ap 0.0000007

Computation Completed

Properties will be evaluated at   0.000000,   0.000000,   0.000000 [a0]

Properties computed using the SCF density matrix

  Nuclear Dipole Moment: [e a0]
     X:    -2.3659      Y:     0.8311      Z:     0.0000

  Electronic Dipole Moment: [e a0]
     X:     2.9192      Y:    -0.2215      Z:     0.0000

  Dipole Moment: [e a0]
     X:     0.5533      Y:     0.6095      Z:     0.0000     Total:     0.8232

  Dipole Moment: [D]
     X:     1.4063      Y:     1.5493      Z:     0.0000     Total:     2.0924

*** tstop() called on c1-9.compute.lan at Tue Mar  9 14:35:07 2021
Module time:
	user time   =      73.38 seconds =       1.22 minutes
	system time =       4.41 seconds =       0.07 minutes
	total time  =          8 seconds =       0.13 minutes
Total time:
	user time   =      73.38 seconds =       1.22 minutes
	system time =       4.41 seconds =       0.07 minutes
	total time  =          8 seconds =       0.13 minutes
 MINTS: Wrapper to libmints.
   by Justin Turney

   Calculation information:
      Number of threads:                12
      Number of atoms:                   4
      Number of AO shells:              46
      Number of SO shells:              46
      Number of primitives:             82
      Number of atomic orbitals:       160
      Number of basis functions:       138

      Number of irreps:                  2
      Integral cutoff                 0.00e+00
      Number of functions per irrep: [  92   46 ]

 OEINTS: Overlap, kinetic, potential, dipole, and quadrupole integrals
         stored in file 35.

      Computing two-electron integrals...done
      Computed 22928871 non-zero two-electron integrals.
        Stored in file 33.

*** tstart() called on c1-9.compute.lan
*** at Tue Mar  9 14:35:11 2021

	Wfn Parameters:
	--------------------
	Wavefunction         = CCSD_T
	Number of irreps     = 2
	Number of MOs        = 138
	Number of active MOs = 136
	AO-Basis             = NONE
	Semicanonical        = false
	Reference            = UHF
	Print Level          = 1

	IRREP	# MOs	# FZDC	# DOCC	# SOCC	# VIRT	# FZVR
	-----	-----	------	------	------	------	------
	 Ap	   92	    2	    5	    1	    84	    0
	 App	   46	    0	    1	    1	    44	    0
	Transforming integrals...
	IWL integrals will be deleted.
	(OO|OO)...
	Presorting SO-basis two-electron integrals.
	Sorting File: SO Ints (nn|nn) nbuckets = 1
	Transforming the one-electron integrals and constructing Fock matrices
	Starting AA/AB first half-transformation.
	Sorting AA/AB half-transformed integrals.
	Starting BB first half-transformation.
	Sorting BB half-transformed integrals.
	First half integral transformation complete.
	Starting AA second half-transformation.
	Starting AB second half-transformation.
	Starting BB second half-transformation.
	Two-electron integral transformation complete.
	(OO|OV)...
	Starting AA second half-transformation.
	Starting AB second half-transformation.
	Starting BB second half-transformation.
	Two-electron integral transformation complete.
	(OO|VV)...
	Starting AA second half-transformation.
	Starting AB second half-transformation.
	Starting BB second half-transformation.
	Two-electron integral transformation complete.
	(OV|OO)...
	Starting AA/AB first half-transformation.
	Sorting AA/AB half-transformed integrals.
	Starting BB first half-transformation.
	Sorting BB half-transformed integrals.
	First half integral transformation complete.
	Starting AA second half-transformation.
	Starting AB second half-transformation.
	Starting BB second half-transformation.
	Two-electron integral transformation complete.
	(OV|OV)...
	Starting AA second half-transformation.
	Starting AB second half-transformation.
	Starting BB second half-transformation.
	Two-electron integral transformation complete.
	(OV|VV)...
	Starting AA second half-transformation.
	Starting AB second half-transformation.
	Starting BB second half-transformation.
	Two-electron integral transformation complete.
	(VV|OO)...
	Starting AA/AB first half-transformation.
	Sorting AA/AB half-transformed integrals.
	Starting BB first half-transformation.
	Sorting BB half-transformed integrals.
	First half integral transformation complete.
	Starting AA second half-transformation.
	Starting AB second half-transformation.
	Starting BB second half-transformation.
	Two-electron integral transformation complete.
	(VV|OV)...
	Starting AA second half-transformation.
	Starting AB second half-transformation.
	Starting BB second half-transformation.
	Two-electron integral transformation complete.
	(VV|VV)...
	Starting AA second half-transformation.
	Starting AB second half-transformation.
	Starting BB second half-transformation.
	Two-electron integral transformation complete.
	Frozen core energy     =   -125.46870620162690

	Size of irrep 0 of <AB|CD> integrals:     19.643 (MW) /    157.141 (MB)
	Size of irrep 1 of <AB|CD> integrals:     13.660 (MW) /    109.283 (MB)
	Total:                                    33.303 (MW) /    266.424 (MB)

	Size of irrep 0 of <ab|cd> integrals:     20.794 (MW) /    166.349 (MB)
	Size of irrep 1 of <ab|cd> integrals:     14.631 (MW) /    117.045 (MB)
	Total:                                    35.424 (MW) /    283.394 (MB)

	Size of irrep 0 of <Ab|Cd> integrals:     83.174 (MW) /    665.395 (MB)
	Size of irrep 1 of <Ab|Cd> integrals:     56.550 (MW) /    452.403 (MB)
	Total:                                   139.725 (MW) /   1117.798 (MB)

	Size of irrep 0 of <IA|BC> integrals:      5.323 (MW) /     42.586 (MB)
	Size of irrep 1 of <IA|BC> integrals:      3.193 (MW) /     25.547 (MB)
	Total:                                     8.517 (MW) /     68.133 (MB)

	Size of irrep 0 of <ia|bc> integrals:      4.348 (MW) /     34.780 (MB)
	Size of irrep 1 of <ia|bc> integrals:      2.372 (MW) /     18.972 (MB)
	Total:                                     6.719 (MW) /     53.752 (MB)

	Size of irrep 0 of <Ia|Bc> integrals:      5.472 (MW) /     43.776 (MB)
	Size of irrep 1 of <Ia|Bc> integrals:      3.309 (MW) /     26.470 (MB)
	Total:                                     8.781 (MW) /     70.246 (MB)

	Size of irrep 0 of <iA|bC> integrals:      4.232 (MW) /     33.853 (MB)
	Size of irrep 1 of <iA|bC> integrals:      2.286 (MW) /     18.289 (MB)
	Total:                                     6.518 (MW) /     52.142 (MB)

	Size of irrep 0 of tIjAb amplitudes:       0.292 (MW) /      2.335 (MB)
	Size of irrep 1 of tIjAb amplitudes:       0.120 (MW) /      0.963 (MB)
	Total:                                     0.412 (MW) /      3.297 (MB)

	Nuclear Rep. energy          =     21.93327462786078
	SCF energy                   =   -150.87470586983142
	One-electron energy          =    -83.22847679045879
	Two-electron (AA) energy     =      9.94367801479170
	Two-electron (BB) energy     =      5.29236931726141
	Two-electron (AB) energy     =     20.65315516233897
	Two-electron energy          =     35.88920249439207
	Reference energy             =   -150.87470586983284

*** tstop() called on c1-9.compute.lan at Tue Mar  9 14:36:07 2021
Module time:
	user time   =     178.64 seconds =       2.98 minutes
	system time =      38.99 seconds =       0.65 minutes
	total time  =         56 seconds =       0.93 minutes
Total time:
	user time   =     258.53 seconds =       4.31 minutes
	system time =      44.24 seconds =       0.74 minutes
	total time  =         68 seconds =       1.13 minutes
            **************************
            *                        *
            *        CCENERGY        *
            *                        *
            **************************

    Nuclear Rep. energy (wfn)     =   21.933274627860779
    SCF energy          (wfn)     = -150.874705869831416
    Reference energy    (file100) = -150.874705869832837

    Input parameters:
    -----------------
    Wave function   =     CCSD_T
    Reference wfn   =     UHF
    Brueckner       =     No
    Memory (Mbytes) =     4000.0
    Maxiter         =     50
    R_Convergence   =     1.0e-10
    E_Convergence   =     1.0e-10
    Restart         =     Yes
    DIIS            =     Yes
    AO Basis        =     NONE
    ABCD            =     NEW
    Cache Level     =     2
    Cache Type      =     LRU
    Print Level     =     1
    Num. of threads =     12
    # Amps to Print =     10
    Print MP2 Amps? =     No
    Analyze T2 Amps =     No
    Print Pair Ener =     No
    Local CC        =     No
    SCS-MP2         =     False
    SCSN-MP2        =     False
    SCS-CCSD        =     False

MP2 correlation energy -0.4160818640078294
                Solving CC Amplitude Equations
                ------------------------------
  Iter             Energy              RMS        T1Diag      D1Diag    New D1Diag    D2Diag
  ----     ---------------------    ---------   ----------  ----------  ----------   --------
     0        -0.416081864007829    0.000e+00    0.000000    0.000000    0.000000    0.000000
     1        -0.426866052547015    5.663e-02    0.010452    0.000000    0.000000    0.000000
     2        -0.434946974070934    1.685e-02    0.010933    0.000000    0.000000    0.000000
     3        -0.437062035192285    8.475e-03    0.012770    0.000000    0.000000    0.000000
     4        -0.436936551574899    2.518e-03    0.013121    0.000000    0.000000    0.000000
     5        -0.436924884691742    1.274e-03    0.013265    0.000000    0.000000    0.000000
     6        -0.436950919202680    5.026e-04    0.013279    0.000000    0.000000    0.000000
     7        -0.436955031417218    2.282e-04    0.013269    0.000000    0.000000    0.000000
     8        -0.436955795577279    7.681e-05    0.013263    0.000000    0.000000    0.000000
     9        -0.436957030415209    4.678e-05    0.013263    0.000000    0.000000    0.000000
    10        -0.436955831863811    3.835e-05    0.013263    0.000000    0.000000    0.000000
    11        -0.436955929455889    3.687e-05    0.013263    0.000000    0.000000    0.000000
    12        -0.436955785722161    3.620e-05    0.013263    0.000000    0.000000    0.000000
    13        -0.436955701311267    3.569e-05    0.013265    0.000000    0.000000    0.000000
    14        -0.436956166811507    3.472e-05    0.013271    0.000000    0.000000    0.000000
    15        -0.436956233037522    3.223e-05    0.013286    0.000000    0.000000    0.000000
    16        -0.436956187425047    2.635e-05    0.013361    0.000000    0.000000    0.000000
    17        -0.436956133317952    1.516e-05    0.013414    0.000000    0.000000    0.000000
    18        -0.436956056064549    6.796e-06    0.013436    0.000000    0.000000    0.000000
    19        -0.436956227399014    2.982e-06    0.013441    0.000000    0.000000    0.000000
    20        -0.436956315509606    1.414e-06    0.013442    0.000000    0.000000    0.000000
    21        -0.436956320853731    5.812e-07    0.013442    0.000000    0.000000    0.000000
    22        -0.436956321042166    2.263e-07    0.013442    0.000000    0.000000    0.000000
    23        -0.436956321341935    9.847e-08    0.013442    0.000000    0.000000    0.000000
    24        -0.436956321148757    4.177e-08    0.013442    0.000000    0.000000    0.000000
    25        -0.436956321852313    2.164e-08    0.013442    0.000000    0.000000    0.000000
    26        -0.436956322228201    7.287e-09    0.013442    0.000000    0.000000    0.000000
    27        -0.436956322304833    2.366e-09    0.013442    0.000000    0.000000    0.000000
    28        -0.436956322332712    1.171e-09    0.013442    0.000000    0.000000    0.000000
    29        -0.436956322332212    7.383e-10    0.013442    0.000000    0.000000    0.000000
    30        -0.436956322321979    5.344e-10    0.013442    0.000000    0.000000    0.000000
    31        -0.436956322316517    4.554e-10    0.013442    0.000000    0.000000    0.000000
    32        -0.436956322314554    4.324e-10    0.013442    0.000000    0.000000    0.000000
    33        -0.436956322313279    4.195e-10    0.013442    0.000000    0.000000    0.000000
    34        -0.436956322312404    3.892e-10    0.013442    0.000000    0.000000    0.000000
    35        -0.436956322311660    3.085e-10    0.013442    0.000000    0.000000    0.000000
    36        -0.436956322312601    1.829e-10    0.013442    0.000000    0.000000    0.000000

      * MP2 total energy                      = -151.290787733840659
      * CCSD total energy                     = -151.311662192144126
      * CCSD(T) total energy                     = -151.323934458266422
*** Psi4 exiting successfully. Buy a developer a beer!
