                               Psi4 1.4a2.dev191

  ==> Input File <==

--------------------------------------------------------------------------
memory 10 GB

molecule {
0 3
O
H 1 R1
O 1 R2 2 A1
H 3 R1 1 A1 2 D1
R1 = 0.9549393540
R2 = 100.0
A1 = 90.0
D1 = 180.0
}

set {
basis aug-cc-pvdz
e_convergence 10
reference uhf
scf_type pk
}

energy("scf")

--------------------------------------------------------------------------

    Molecular point group: c2h

    Geometry (in Angstrom), charge = 0, multiplicity = 3:

       Center              X                  Y                   Z               Mass
    ------------   -----------------  -----------------  -----------------  -----------------
         O           50.000000000000     0.000000000000     0.000000000000    15.994914619570
         H           50.000000000000    -0.954939354000     0.000000000000     1.007825032230
         O          -50.000000000000     0.000000000000     0.000000000000    15.994914619570
         H          -50.000000000000     0.954939354000     0.000000000000     1.007825032230

  Charge       = 0
  Multiplicity = 3
  Basis Set: AUG-CC-PVDZ
    Blend: AUG-CC-PVDZ

    Orbital Energies [Eh]
    ---------------------

    Alpha Occupied:

       1Ag   -20.650237     1Bu   -20.650237     2Ag    -1.397483
       2Bu    -1.397483     3Ag    -0.688551     3Bu    -0.688551
       4Ag    -0.657723     4Bu    -0.657723     1Au    -0.562244
       1Bg    -0.562244

    Alpha Virtual:

       5Ag     0.035945     5Bu     0.035945     6Ag     0.178046
       6Bu     0.178046     7Ag     0.184826     7Bu     0.184826
       2Au     0.197661     2Bg     0.197661     8Ag     0.226974
       8Bu     0.226974     9Ag     0.319486     9Bu     0.319486
      10Ag     0.388131    10Bu     0.388131     3Au     0.398630
       3Bg     0.398630    11Ag     0.629474    11Bu     0.629474
      12Ag     0.846374    12Bu     0.846374     4Au     0.955863
       4Bg     0.955863    13Ag     0.957735    13Bu     0.957735
      14Ag     1.086334    14Bu     1.086334     5Au     1.116905
       5Bg     1.116905    15Ag     1.318245    15Bu     1.318245
      16Ag     1.331347    16Bu     1.331347     6Au     1.390175
       6Bg     1.390175    17Ag     1.669331    17Bu     1.669331
      18Ag     2.021865    18Bu     2.021865     7Au     2.040112
       7Bg     2.040112    19Ag     2.524488    19Bu     2.524488
      20Ag     2.762948    20Bu     2.762948     8Au     3.483552
       8Bg     3.483552    21Ag     3.483593    21Bu     3.483593
      22Ag     3.595080    22Bu     3.595080     9Au     3.655282
       9Bg     3.655282    23Ag     4.123043    23Bu     4.123043

    Beta Occupied:

       1Ag   -20.609492     1Bu   -20.609492     2Ag    -1.240645
       2Bu    -1.240645     3Ag    -0.643933     3Bu    -0.643933
       1Au    -0.512732     1Bg    -0.512732

    Beta Virtual:

       4Ag     0.037354     4Bu     0.037354     5Ag     0.064023
       5Bu     0.064023     6Ag     0.181203     6Bu     0.181203
       2Au     0.201070     2Bg     0.201070     7Ag     0.233872
       7Bu     0.233872     8Ag     0.256789     8Bu     0.256789
       9Ag     0.324531     9Bu     0.324531     3Au     0.398366
       3Bg     0.398366    10Ag     0.411954    10Bu     0.411954
      11Ag     0.644144    11Bu     0.644144    12Ag     0.857672
      12Bu     0.857672     4Au     0.994575     4Bg     0.994575
      13Ag     0.995703    13Bu     0.995703     5Au     1.119197
       5Bg     1.119197    14Ag     1.132455    14Bu     1.132455
      15Ag     1.333313    15Bu     1.333313     6Au     1.413281
       6Bg     1.413281    16Ag     1.501076    16Bu     1.501076
      17Ag     1.691974    17Bu     1.691974    18Ag     2.030683
      18Bu     2.030683     7Au     2.037095     7Bg     2.037095
      19Ag     2.557606    19Bu     2.557606    20Ag     2.778545
      20Bu     2.778545     8Au     3.583770     8Bg     3.583770
      21Ag     3.584504    21Bu     3.584504     9Au     3.673684
       9Bg     3.673684    22Ag     3.691379    22Bu     3.691379
      23Ag     4.156330    23Bu     4.156330

    Final Occupation by Irrep:
             Ag    Bg    Au    Bu
    DOCC [     3,    1,    1,    3 ]
    SOCC [     1,    0,    0,    1 ]

  @UHF Final Energy:  -150.80775360872087

   => Energetics <=

    Nuclear Repulsion Energy =              9.2949879615686797
    One-Electron Energy =                -226.2794018294781040
    Two-Electron Energy =                  66.1766602591885658
    Total Energy =                       -150.8077536087208728

  UHF NO Occupations:
  HONO-2 :    3 Ag 1.9980416
  HONO-1 :    4 Bu 1.0000000
  HONO-0 :    4 Ag 1.0000000
  LUNO+0 :    5 Bu 0.0019584
  LUNO+1 :    5 Ag 0.0019584
  LUNO+2 :    6 Bu 0.0006758
  LUNO+3 :    6 Ag 0.0006758

Computation Completed

Properties will be evaluated at   0.000000,   0.000000,   0.000000 [a0]

Properties computed using the SCF density matrix

  Nuclear Dipole Moment: [e a0]
     X:     0.0000      Y:     0.0000      Z:     0.0000

  Electronic Dipole Moment: [e a0]
     X:     0.0000      Y:     0.0000      Z:     0.0000

  Dipole Moment: [e a0]
     X:     0.0000      Y:     0.0000      Z:     0.0000     Total:     0.0000

  Dipole Moment: [D]
     X:     0.0000      Y:     0.0000      Z:     0.0000     Total:     0.0000

*** tstop() called on c4-9.compute.lan at Tue Feb 23 14:02:06 2021
Module time:
	user time   =       0.91 seconds =       0.02 minutes
	system time =       0.03 seconds =       0.00 minutes
	total time  =          1 seconds =       0.02 minutes
Total time:
	user time   =       0.91 seconds =       0.02 minutes
	system time =       0.03 seconds =       0.00 minutes
	total time  =          1 seconds =       0.02 minutes

    Psi4 stopped on: Tuesday, 23 February 2021 02:02PM
    Psi4 wall time for execution: 0:00:00.98

*** Psi4 exiting successfully. Buy a developer a beer!
