                               Psi4 1.4a2.dev191

  ==> Input File <==

--------------------------------------------------------------------------
memory 10 GB

molecule {
0 2
O
H 1 R1
R1 = 0.96
}

set {
basis aug-cc-pv5z
e_convergence 10
reference uhf
scf_type pk
g_convergence gau_verytight
}

optimize("scf")

--------------------------------------------------------------------------

    Molecular point group: c2v
  Charge       = 0
  Multiplicity = 2
  Basis Set: AUG-CC-PV5Z
    Blend: AUG-CC-PV5Z
  @UHF Final Energy:   -75.42817395653557
    Total Energy =                        -75.4281739565355736
    Molecular point group: c2v
  Basis Set: AUG-CC-PV5Z
    Blend: AUG-CC-PV5Z
  Basis Set: AUG-CC-PV5Z
    Blend: AUG-CC-PV5Z
  @UHF Final Energy:   -75.42827185577241
    Total Energy =                        -75.4282718557724081
  Basis Set: AUG-CC-PV5Z
    Blend: AUG-CC-PV5Z
  Basis Set: AUG-CC-PV5Z
    Blend: AUG-CC-PV5Z
  @UHF Final Energy:   -75.42827190367809
    Total Energy =                        -75.4282719036780946
  Basis Set: AUG-CC-PV5Z
    Blend: AUG-CC-PV5Z
  Charge       = 0
  Multiplicity = 2
  Basis Set: AUG-CC-PV5Z
    Blend: AUG-CC-PV5Z

    Orbital Energies [Eh]
    ---------------------

    Alpha Occupied:

       1A1   -20.636182     2A1    -1.394872     3A1    -0.688433
       1B1    -0.659685     1B2    -0.562597

    Alpha Virtual:

       4A1     0.024188     5A1     0.088839     2B1     0.103419
       2B2     0.108782     6A1     0.138094     3B1     0.179733
       7A1     0.182562     3B2     0.183046     8A1     0.287964
       9A1     0.399272     1A2     0.399963    10A1     0.424845
       4B1     0.453747     4B2     0.469219     5B1     0.474445
       5B2     0.484557    11A1     0.487867    12A1     0.514002
       2A2     0.527626    13A1     0.527937     6B1     0.547319
       6B2     0.557310    14A1     0.666379     7B1     0.972618
       7B2     0.975053     8B1     0.975993     8B2     0.990739
      15A1     0.995917    16A1     1.080810     9B1     1.128272
      17A1     1.138514     9B2     1.140736     3A2     1.168096
      18A1     1.170949     4A2     1.208880    19A1     1.210225
      10B1     1.245310    20A1     1.249835    10B2     1.254186
      11B1     1.278668    11B2     1.278755     5A2     1.326231
      21A1     1.326551    22A1     1.402138    12B1     1.472998
      12B2     1.502818    23A1     1.719357    13B1     1.863925
      13B2     1.902946    24A1     2.206336     6A2     2.300269
      25A1     2.301261    14B1     2.313516    14B2     2.328684
       7A2     2.568367    26A1     2.568367    27A1     2.615552
      15B1     2.647360    15B2     2.670649    28A1     2.720925
      16B1     2.834946    16B2     2.834998    17B1     2.912963
      17B2     2.916914    29A1     2.917864    18B1     2.926628
       8A2     2.932300    30A1     2.944251    18B2     2.947288
       9A2     3.041354    31A1     3.041512    32A1     3.128481
      10A2     3.128481    33A1     3.141909    11A2     3.186561
      34A1     3.186636    19B1     3.287147    19B2     3.308122
      20B1     3.324286    20B2     3.324339    35A1     3.451654
      21B1     3.555876    21B2     3.579838    36A1     3.652879
      12A2     3.830852    37A1     3.832568    38A1     4.254794
      22B1     4.547317    22B2     4.584221    23B1     4.689533
      23B2     4.689590    24B1     4.750947    24B2     4.802745
      39A1     5.074611    13A2     5.428153    40A1     5.428336
      41A1     5.631782    25B1     5.801324    25B2     5.826432
      14A2     5.916043    42A1     5.916265    26B1     6.164033
      26B2     6.184832    27B1     6.184832    27B2     6.186289
      43A1     6.281221    15A2     6.467083    44A1     6.467083
      28B1     6.658242    28B2     6.705132    45A1     6.909932
      46A1     7.085939    16A2     7.086022    47A1     7.105117
      29B1     7.157281    29B2     7.160587    30B1     7.183970
      17A2     7.188909    48A1     7.194580    30B2     7.212952
      31B1     7.237256    31B2     7.238849    32B1     7.599930
      32B2     7.599956    49A1     7.723291    18A2     7.725033
      50A1     7.810745    51A1     7.904351    19A2     7.904736
      33B1     8.531010    33B2     8.570119    52A1     8.591700
      53A1     8.836539    34B1     9.153469    34B2     9.198822
      20A2     9.440343    54A1     9.440842    55A1    10.382367
      35B1    10.456932    35B2    10.503671    56A1    12.809343
      36B1    12.981256    36B2    12.981256    21A2    13.143369
      57A1    13.143369    58A1    13.524314    22A2    13.524452
      37B1    13.942116    37B2    13.942119    59A1    14.102621
      23A2    14.134481    60A1    14.134485    38B1    14.232021
      38B2    14.249756    39B1    14.497430    39B2    14.513990
      61A1    14.751968    62A1    15.621097    24A2    15.752157
      63A1    15.753908    40B1    15.985653    40B2    16.025955
      41B1    16.210732    41B2    16.210732    25A2    16.354735
      64A1    16.354735    42B1    16.708251    42B2    16.759005
      65A1    16.875703    43B1    16.909210    43B2    16.909218
      66A1    17.905668    26A2    17.913250    44B1    17.924290
      44B2    17.958200    67A1    18.003877    45B1    18.169301
      45B2    18.198175    68A1    18.700014    69A1    19.068612
      27A2    19.068613    46B1    19.175568    46B2    19.175576
      47B1    19.223155    47B2    19.223166    70A1    19.594715
      28A2    19.605805    71A1    19.677421    29A2    20.081906
      72A1    20.083051    48B1    20.581033    48B2    20.635541
      73A1    21.224933    30A2    22.422270    74A1    22.422844
      49B1    23.180995    49B2    23.232021    50B1    24.220213
      50B2    24.265953    75A1    26.303867    76A1    26.376647
      77A1    65.074610

    Beta Occupied:

       1A1   -20.596669     2A1    -1.237731     3A1    -0.644160
       1B2    -0.514742

    Beta Virtual:

       4A1     0.025022     1B1     0.055710     5A1     0.089715
       2B2     0.109822     6A1     0.141135     2B1     0.147210
       3B2     0.183007     7A1     0.184275     3B1     0.191185
       8A1     0.292748     1A2     0.405111     9A1     0.405160
      10A1     0.427859     4B2     0.472698     4B1     0.479826
       5B2     0.484474    11A1     0.490902     5B1     0.508065
      12A1     0.519291     2A2     0.527977    13A1     0.528233
       6B2     0.558853     6B1     0.577232    14A1     0.676132
       7B2     0.978890     7B1     0.978907     8B2     0.991620
      15A1     1.002847     8B1     1.005453    16A1     1.086748
       9B1     1.132513     9B2     1.140126    17A1     1.147668
       3A2     1.174327    18A1     1.174917     4A2     1.230879
      19A1     1.231032    10B1     1.253394    10B2     1.254543
      20A1     1.256120    11B1     1.279243    11B2     1.279247
       5A2     1.340133    21A1     1.340636    22A1     1.412775
      12B2     1.508492    12B1     1.528469    23A1     1.727669
      13B2     1.913729    13B1     1.942397    24A1     2.213516
       6A2     2.308182    25A1     2.308452    14B1     2.319513
      14B2     2.327178    26A1     2.574713     7A2     2.574713
      27A1     2.627313    15B1     2.668621    15B2     2.673119
      28A1     2.730092    16B2     2.855606    16B1     2.855608
      17B1     2.923808    17B2     2.924492    29A1     2.932505
       8A2     2.939179    18B1     2.940598    18B2     2.948324
      30A1     2.948386     9A2     3.055706    31A1     3.055845
      32A1     3.130485    10A2     3.130485    33A1     3.151270
      11A2     3.241537    34A1     3.242540    19B2     3.311833
      19B1     3.313421    20B2     3.325639    20B1     3.325652
      35A1     3.465946    21B1     3.568285    21B2     3.581744
      36A1     3.663609    12A2     3.846407    37A1     3.846714
      38A1     4.263616    22B1     4.588367    22B2     4.591771
      23B1     4.693134    23B2     4.693138    24B2     4.816414
      24B1     4.829359    39A1     5.093290    40A1     5.433841
      13A2     5.433863    41A1     5.638809    25B1     5.818503
      25B2     5.828555    14A2     5.924482    42A1     5.924509
      26B1     6.172708    26B2     6.186629    27B1     6.196419
      27B2     6.196419    43A1     6.290421    44A1     6.476990
      15A2     6.476990    28B1     6.702997    28B2     6.714700
      45A1     6.933939    46A1     7.110460    16A2     7.110574
      47A1     7.114482    29B1     7.175689    29B2     7.178575
      30B1     7.195167    17A2     7.199614    48A1     7.201926
      30B2     7.216006    31B1     7.260975    31B2     7.261126
      32B1     7.631598    32B2     7.631600    49A1     7.753972
      18A2     7.754964    50A1     7.817989    19A2     7.947721
      51A1     7.948033    33B1     8.552311    33B2     8.574367
      52A1     8.607495    53A1     8.853011    34B1     9.189549
      34B2     9.207502    20A2     9.478744    54A1     9.478831
      55A1    10.392731    35B1    10.500770    35B2    10.513461
      56A1    12.838906    36B1    12.981827    36B2    12.981828
      57A1    13.143745    21A2    13.143745    58A1    13.527515
      22A2    13.527598    37B1    13.944144    37B2    13.944145
      59A1    14.108333    60A1    14.133356    23A2    14.133357
      38B1    14.236976    38B2    14.249646    39B1    14.502283
      39B2    14.514285    61A1    14.755598    62A1    15.626978
      24A2    15.758282    63A1    15.759151    40B1    16.020020
      40B2    16.033530    41B1    16.235925    41B2    16.235925
      25A2    16.375388    64A1    16.375388    42B1    16.755052
      42B2    16.769829    65A1    16.878710    43B1    16.925517
      43B2    16.925520    66A1    17.924796    26A2    17.928509
      44B1    17.935811    44B2    17.960379    67A1    18.011004
      45B1    18.182913    45B2    18.200988    68A1    18.722808
      69A1    19.107002    27A2    19.107002    46B1    19.209263
      46B2    19.209263    47B1    19.267808    47B2    19.267810
      70A1    19.625696    28A2    19.631665    71A1    19.683728
      29A2    20.109856    72A1    20.110242    48B1    20.614921
      48B2    20.645570    73A1    21.241260    30A2    22.468106
      74A1    22.468208    49B1    23.213921    49B2    23.240660
      50B1    24.250385    50B2    24.274315    75A1    26.311323
      76A1    26.387557    77A1    65.089985

    Final Occupation by Irrep:
             A1    A2    B1    B2
    DOCC [     3,    0,    0,    1 ]
    SOCC [     0,    0,    1,    0 ]

  @UHF Final Energy:   -75.42827190373487

   => Energetics <=

    Nuclear Repulsion Energy =              4.4552041082542777
    One-Electron Energy =                -112.8318802620364352
    Two-Electron Energy =                  32.9484042500472896
    Total Energy =                        -75.4282719037348670

  UHF NO Occupations:
  HONO-2 :    2 A1 1.9992849
  HONO-1 :    3 A1 1.9978783
  HONO-0 :    1 B1 1.0000000
  LUNO+0 :    4 A1 0.0021217
  LUNO+1 :    5 A1 0.0007151
  LUNO+2 :    2 B2 0.0006204
  LUNO+3 :    6 A1 0.0000013

Computation Completed

Properties will be evaluated at   0.000000,   0.000000,   0.000000 [a0]

Properties computed using the SCF density matrix

  Nuclear Dipole Moment: [e a0]
     X:     0.0000      Y:     0.0000      Z:     0.8377

  Electronic Dipole Moment: [e a0]
     X:     0.0000      Y:     0.0000      Z:    -0.1525

  Dipole Moment: [e a0]
     X:     0.0000      Y:     0.0000      Z:     0.6852     Total:     0.6852

  Dipole Moment: [D]
     X:     0.0000      Y:     0.0000      Z:     1.7417     Total:     1.7417

*** tstop() called on c4-20.compute.lan at Tue Feb 23 13:33:49 2021
Module time:
	user time   =      26.42 seconds =       0.44 minutes
	system time =       1.81 seconds =       0.03 minutes
	total time  =         28 seconds =       0.47 minutes
Total time:
	user time   =     694.63 seconds =      11.58 minutes
	system time =       8.85 seconds =       0.15 minutes
	total time  =        705 seconds =      11.75 minutes

*** tstart() called on c4-20.compute.lan
*** at Tue Feb 23 13:33:49 2021

         ------------------------------------------------------------
                                   SCF GRAD
                          Rob Parrish, Justin Turney,
                       Andy Simmonett, and Alex Sokolov
         ------------------------------------------------------------

  ==> Geometry <==

    Molecular point group: c2v
    Full point group: C_inf_v

    Geometry (in Angstrom), charge = 0, multiplicity = 2:

       Center              X                  Y                   Z               Mass
    ------------   -----------------  -----------------  -----------------  -----------------
         O            0.000000000000     0.000000000000    -0.056323515062    15.994914619570
         H            0.000000000000     0.000000000000     0.893895056859     1.007825032230

  Nuclear repulsion =    4.455204108254278

  ==> Basis Set <==

  Basis Set: AUG-CC-PV5Z
    Blend: AUG-CC-PV5Z
    Number of shells: 47
    Number of basis function: 207
    Number of Cartesian functions: 287
    Spherical Harmonics?: true
    Max angular momentum: 5

  ==> DirectJKGrad: Integral-Direct SCF Gradients <==

    Gradient:                    1
    J tasked:                  Yes
    K tasked:                  Yes
    wK tasked:                  No
    Integrals threads:           1
    Schwarz Cutoff:          0E+00

  -Total Gradient:
     Atom            X                  Y                   Z
    ------   -----------------  -----------------  -----------------
       1        0.000000000000     0.000000000000     0.000000335140
       2        0.000000000000     0.000000000000    -0.000000335140

*** tstop() called on c4-20.compute.lan at Tue Feb 23 13:37:05 2021
Module time:
	user time   =     195.13 seconds =       3.25 minutes
	system time =       0.21 seconds =       0.00 minutes
	total time  =        196 seconds =       3.27 minutes
Total time:
	user time   =     889.77 seconds =      14.83 minutes
	system time =       9.06 seconds =       0.15 minutes
	total time  =        901 seconds =      15.02 minutes

			-----------------------------------------
			 OPTKING 2.0: for geometry optimizations
			  - R.A. King,  Bethel University
			-----------------------------------------

	Previous internal coordinate definitions found.
	---Fragment 1 Geometry and Gradient---
	 O           0.0000000000        0.0000000000       -0.1064360179
	 H           0.0000000000        0.0000000000        1.6892168424
	             0.0000000000        0.0000000000        0.0000003351
	             0.0000000000        0.0000000000       -0.0000003351

	---Fragment 1 Intrafragment Coordinates---
	 - Coordinate -           - BOHR/RAD -       - ANG/DEG -
	 R(1,2)           =         1.795653	       0.950219

	Current energy   :       -75.4282719037

	Energy change for the previous step:
		Projected    :        -0.0000000000
		Actual       :        -0.0000000001

	Performing BFGS update.
	Previous computed or guess Hessian on step 1.
	Denominators (dg)(dq) or (dq)(dq) are very small.
	 Skipping Hessian update for step 3.
	Denominators (dg)(dq) or (dq)(dq) are very small.
	 Skipping Hessian update for step 2.
	Steps to be used in Hessian update: 1
	Taking RFO optimization step.
	Going to follow RFO solution 1.
	Using RFO vector 1.
	Norm of target step-size    0.00000
	Projected energy change by RFO approximation:        -0.0000000000

	Back-transformation to cartesian coordinates...
	Successfully converged to displaced geometry.

	--- Internal Coordinate Step in ANG or DEG, aJ/ANG or AJ/DEG ---
	 ---------------------------------------------------------------------------
	   Coordinate                Previous        Force       Change         New
	   ----------                --------       ------       ------       ------
	    1 R(1,2)          =      0.950219     0.000003     0.000000     0.950219
	 ---------------------------------------------------------------------------
	Successfully symmetrized geometry.

  ==> Convergence Check <==

  Measures of convergence in internal coordinates in au.
  Criteria marked as inactive (o), active & met (*), and active & unmet ( ).
  ---------------------------------------------------------------------------------------------
   Step     Total Energy     Delta E     MAX Force     RMS Force      MAX Disp      RMS Disp
  ---------------------------------------------------------------------------------------------
    Convergence Criteria             o    2.00e-06 *    1.00e-06 *    6.00e-06 *    4.00e-06 *
  ---------------------------------------------------------------------------------------------
      4     -75.42827190   -5.68e-11 o    3.35e-07 *    3.35e-07 *    5.91e-07 *    5.91e-07 *  ~
  ---------------------------------------------------------------------------------------------

  **** Optimization is complete! (in 4 steps) ****

  ==> Optimization Summary <==

  Measures of convergence in internal coordinates in au.
  --------------------------------------------------------------------------------------------------------------- ~
   Step         Total Energy             Delta E       MAX Force       RMS Force        MAX Disp        RMS Disp  ~
  --------------------------------------------------------------------------------------------------------------- ~
      1     -75.428173956536    -75.428173956536      0.01048165      0.01048165      0.01888817      0.01888817  ~
      2     -75.428271855772     -0.000097899237      0.00023724      0.00023724      0.00041806      0.00041806  ~
      3     -75.428271903678     -0.000000047906      0.00000800      0.00000800      0.00001411      0.00001411  ~
      4     -75.428271903735     -0.000000000057      0.00000034      0.00000034      0.00000059      0.00000059  ~
  --------------------------------------------------------------------------------------------------------------- ~

	Writing optimization data to binary file.
	Final energy is    -75.4282719037349
	Final (previous) structure:
	Cartesian Geometry (in Angstrom)
	    O     0.0000000000   0.0000000000  -0.0563235148
	    H     0.0000000000   0.0000000000   0.8938950533
	Saving final (previous) structure.
			--------------------------
			 OPTKING Finished Execution
			--------------------------

    Final optimized geometry and variables:
    Molecular point group: c2v
    Full point group: C_inf_v

    Geometry (in Angstrom), charge = 0, multiplicity = 2:

    O
    H             1          R1

    R1        =    0.9502185719

	Removing binary optimization data file.
	Cleaning optimization helper files.

    Psi4 stopped on: Tuesday, 23 February 2021 01:37PM
    Psi4 wall time for execution: 0:15:01.17

*** Psi4 exiting successfully. Buy a developer a beer!
