                               Psi4 1.3.2 release

  ==> Input File <==

--------------------------------------------------------------------------
memory 4 GB

molecule  {
0 3
O    0.000000000000    0.000000000000   -1.643395389876
H    0.000000000000   -0.754350113400   -1.046398197002
H   -0.000000000000    0.754350113400   -1.046398197002
O    0.000000000000    0.000000000000    1.775260588498
}
set {
basis aug-cc-pvtz
reference uhf
e_convergence 10
scf_type pk
freeze_core true
}

set ccenergy {
e_convergence 10
r_convergence 10
}

e = energy('ccsd(t)')

print_out('Stephenergy {}'.format(e))

--------------------------------------------------------------------------

    Molecular point group: c2v

    Geometry (in Angstrom), charge = 0, multiplicity = 3:

       Center              X                  Y                   Z               Mass
    ------------   -----------------  -----------------  -----------------  -----------------
         O           -0.000000000000     0.000000000000    -1.643395389876    15.994914619570
         H            0.000000000000    -0.754350113400    -1.046398197002     1.007825032230
         H           -0.000000000000     0.754350113400    -1.046398197002     1.007825032230
         O           -0.000000000000     0.000000000000     1.775260588498    15.994914619570

  Charge       = 0
  Multiplicity = 3
  Basis Set: AUG-CC-PVTZ
    Blend: AUG-CC-PVTZ

    Orbital Energies [Eh]
    ---------------------

    Alpha Occupied:

       1A1   -20.729027     2A1   -20.563064     3A1    -1.438019
       4A1    -1.346791     1B2    -0.729427     1B1    -0.729039
       2B2    -0.707740     5A1    -0.632396     6A1    -0.580144
       2B1    -0.505299

    Alpha Virtual:

       7A1     0.035497     3B2     0.048547     3B1     0.132077
       8A1     0.134676     9A1     0.148113     4B2     0.158044
       4B1     0.181244     5B2     0.184982    10A1     0.189314
      11A1     0.250541     6B2     0.257628     1A2     0.266082
      12A1     0.273504     5B1     0.319806    13A1     0.367873
       7B2     0.382439    14A1     0.454112     8B2     0.471831
       2A2     0.609110     9B2     0.616082    15A1     0.618554
      16A1     0.619788     6B1     0.640722    17A1     0.717627
       3A2     0.731132    10B2     0.736136     7B1     0.742324
      18A1     0.800621    19A1     0.838462     8B1     0.840568
      11B2     0.853924     9B1     0.915454    20A1     0.926537
       4A2     0.934257    12B2     0.941823    21A1     0.958439
      10B1     0.961434    13B2     0.962980    22A1     1.048896
      14B2     1.054124    11B1     1.123637     5A2     1.185856
      23A1     1.186726    15B2     1.256717    24A1     1.262778
      16B2     1.275291    25A1     1.347091     6A2     1.511340
      12B1     1.591335    26A1     1.633392    27A1     1.828993
      17B2     1.830158    18B2     1.971807    13B1     1.978534
      19B2     1.989725    28A1     2.005284     7A2     2.011237
      14B1     2.026265    29A1     2.036384     8A2     2.040148
      20B2     2.081828    30A1     2.086539    15B1     2.120314
      31A1     2.146501    21B2     2.262267    16B1     2.279181
       9A2     2.329467    32A1     2.339299    33A1     2.402660
      34A1     2.487994    22B2     2.492637    17B1     2.506578
      35A1     2.575565    23B2     2.689587    18B1     2.718933
      36A1     2.820088    10A2     2.888676    24B2     2.901645
      25B2     3.666710    37A1     3.752296    11A2     4.031362
      19B1     4.050746    26B2     4.085167    20B1     4.101243
      38A1     4.148673    27B2     4.277567    21B1     4.282211
      39A1     4.367534    12A2     4.383037    40A1     4.406445
      22B1     4.416297    28B2     4.530394    41A1     4.749222
      29B2     4.851889    13A2     5.148602    30B2     5.164692
      31B2     5.250007    42A1     5.367902    23B1     5.527103
      43A1     5.673677    44A1     6.199854    24B1     6.315090
      32B2     6.315951    14A2     6.370243    45A1     6.375571
      25B1     6.402265    33B2     6.451067    46A1     6.480961
      34B2     6.527762    26B1     6.737821    15A2     6.819181
      47A1     6.820624    27B1     6.927779    48A1     6.930354
      35B2     6.957396    49A1     7.033348    28B1     7.135425
      29B1     7.260397    16A2     7.317545    36B2     7.342068
      17A2     7.357965    50A1     7.358568    51A1     7.546317
      52A1     7.898044    37B2     7.936554    53A1     8.533666
      38B2     8.811654    54A1    15.717560

    Beta Occupied:

       1A1   -20.650462     2A1   -20.563103     3A1    -1.346968
       4A1    -1.095723     1B2    -0.707879     5A1    -0.584361
       6A1    -0.538567     1B1    -0.505289

    Beta Virtual:

       2B2     0.035339     7A1     0.036620     2B1     0.049841
       3B2     0.069582     8A1     0.140836     9A1     0.150679
       3B1     0.160461     4B2     0.180857    10A1     0.189632
       5B2     0.221977     4B1     0.225326    11A1     0.259557
       6B2     0.263135     1A2     0.266401    12A1     0.274965
       5B1     0.320461    13A1     0.371262     7B2     0.387557
      14A1     0.455255     8B2     0.472360     9B2     0.618509
      15A1     0.621040     2A2     0.641326    16A1     0.651476
       6B1     0.652789    17A1     0.718947     3A2     0.732554
       7B1     0.744352    10B2     0.747571    18A1     0.809429
      19A1     0.851169     8B1     0.912173     9B1     0.930730
      20A1     0.931909     4A2     0.935681    11B2     0.940151
      12B2     0.944722    21A1     0.959379    13B2     1.009972
      10B1     1.025265    22A1     1.049497    14B2     1.056981
      11B1     1.128833     5A2     1.186570    23A1     1.190791
      15B2     1.269662    16B2     1.279175    24A1     1.282261
      25A1     1.403763     6A2     1.511451    12B1     1.591441
      26A1     1.646191    27A1     1.830145    17B2     1.831403
      18B2     1.978926    13B1     2.016621    19B2     2.021497
      28A1     2.030466     7A2     2.041966    14B1     2.046600
      29A1     2.099993    20B2     2.125957    30A1     2.156270
       8A2     2.182439    15B1     2.189362    31A1     2.195752
      16B1     2.283508    21B2     2.307882     9A2     2.332452
      32A1     2.359887    33A1     2.413605    34A1     2.492228
      22B2     2.497337    17B1     2.511264    35A1     2.578483
      23B2     2.689752    18B1     2.719024    36A1     2.820410
      10A2     2.888699    24B2     2.903679    25B2     3.666751
      37A1     3.752435    11A2     4.031450    19B1     4.100533
      38A1     4.163175    20B1     4.223602    26B2     4.241437
      21B1     4.282234    27B2     4.291460    12A2     4.383085
      39A1     4.389906    22B1     4.416488    40A1     4.417083
      28B2     4.530605    41A1     4.749380    29B2     4.851987
      13A2     5.148620    30B2     5.164696    31B2     5.250031
      42A1     5.368353    23B1     5.527107    43A1     5.674014
      44A1     6.201599    24B1     6.423936    32B2     6.424649
      14A2     6.446900    45A1     6.450571    25B1     6.457523
      33B2     6.495222    46A1     6.529731    34B2     6.540238
      26B1     6.744279    47A1     6.930441    15A2     7.008196
      48A1     7.010036    27B1     7.035148    35B2     7.066430
      49A1     7.114224    28B1     7.135716    29B1     7.260353
      16A2     7.317584    36B2     7.344134    17A2     7.358028
      50A1     7.359268    51A1     7.547048    52A1     7.898276
      37B2     7.936537    53A1     8.618706    38B2     8.811592
      54A1    15.717555

    Final Occupation by Irrep:
             A1    A2    B1    B2
    DOCC [     6,    0,    1,    1 ]
    SOCC [     0,    0,    1,    1 ]

  @UHF Final Energy:  -150.87354066794222

   => Energetics <=

    Nuclear Repulsion Energy =             21.9574847629554171
    One-Electron Energy =                -251.7087522347673030
    Two-Electron Energy =                  78.8777268038696491
    Total Energy =                       -150.8735406679422510

  UHF NO Occupations:
  HONO-2 :    6 A1 1.9970744
  HONO-1 :    2 B2 1.0000000
  HONO-0 :    2 B1 1.0000000
  LUNO+0 :    7 A1 0.0029256
  LUNO+1 :    8 A1 0.0016862
  LUNO+2 :    9 A1 0.0000024
  LUNO+3 :   10 A1 0.0000004

Computation Completed

Properties will be evaluated at   0.000000,   0.000000,   0.000000 [a0]

Properties computed using the SCF density matrix

  Nuclear Dipole Moment: [e a0]
     X:    -0.0000      Y:     0.0000      Z:    -1.9613

  Electronic Dipole Moment: [e a0]
     X:     0.0000      Y:     0.0000      Z:     2.7953

  Dipole Moment: [e a0]
     X:    -0.0000      Y:     0.0000      Z:     0.8340     Total:     0.8340

  Dipole Moment: [D]
     X:    -0.0000      Y:     0.0000      Z:     2.1199     Total:     2.1199

*** tstop() called on c1-9.compute.lan at Wed Mar 10 09:44:34 2021
Module time:
	user time   =      53.47 seconds =       0.89 minutes
	system time =       3.92 seconds =       0.07 minutes
	total time  =          8 seconds =       0.13 minutes
Total time:
	user time   =      53.47 seconds =       0.89 minutes
	system time =       3.92 seconds =       0.07 minutes
	total time  =          8 seconds =       0.13 minutes
 MINTS: Wrapper to libmints.
   by Justin Turney

   Calculation information:
      Number of threads:                12
      Number of atoms:                   4
      Number of AO shells:              46
      Number of SO shells:              37
      Number of primitives:             82
      Number of atomic orbitals:       160
      Number of basis functions:       138

      Number of irreps:                  4
      Integral cutoff                 0.00e+00
      Number of functions per irrep: [  54   17   29   38 ]

 OEINTS: Overlap, kinetic, potential, dipole, and quadrupole integrals
         stored in file 35.

      Computing two-electron integrals...done
      Computed 11532967 non-zero two-electron integrals.
        Stored in file 33.

*** tstart() called on c1-9.compute.lan
*** at Wed Mar 10 09:44:37 2021

	Wfn Parameters:
	--------------------
	Wavefunction         = CCSD_T
	Number of irreps     = 4
	Number of MOs        = 138
	Number of active MOs = 136
	AO-Basis             = NONE
	Semicanonical        = false
	Reference            = UHF
	Print Level          = 1

	IRREP	# MOs	# FZDC	# DOCC	# SOCC	# VIRT	# FZVR
	-----	-----	------	------	------	------	------
	 A1	   54	    2	    4	    0	    48	    0
	 A2	   17	    0	    0	    0	    17	    0
	 B1	   29	    0	    1	    1	    27	    0
	 B2	   38	    0	    1	    1	    36	    0
	Transforming integrals...
	IWL integrals will be deleted.
	(OO|OO)...
	Presorting SO-basis two-electron integrals.
	Sorting File: SO Ints (nn|nn) nbuckets = 1
	Transforming the one-electron integrals and constructing Fock matrices
	Starting AA/AB first half-transformation.
	Sorting AA/AB half-transformed integrals.
	Starting BB first half-transformation.
	Sorting BB half-transformed integrals.
	First half integral transformation complete.
	Starting AA second half-transformation.
	Starting AB second half-transformation.
	Starting BB second half-transformation.
	Two-electron integral transformation complete.
	(OO|OV)...
	Starting AA second half-transformation.
	Starting AB second half-transformation.
	Starting BB second half-transformation.
	Two-electron integral transformation complete.
	(OO|VV)...
	Starting AA second half-transformation.
	Starting AB second half-transformation.
	Starting BB second half-transformation.
	Two-electron integral transformation complete.
	(OV|OO)...
	Starting AA/AB first half-transformation.
	Sorting AA/AB half-transformed integrals.
	Starting BB first half-transformation.
	Sorting BB half-transformed integrals.
	First half integral transformation complete.
	Starting AA second half-transformation.
	Starting AB second half-transformation.
	Starting BB second half-transformation.
	Two-electron integral transformation complete.
	(OV|OV)...
	Starting AA second half-transformation.
	Starting AB second half-transformation.
	Starting BB second half-transformation.
	Two-electron integral transformation complete.
	(OV|VV)...
	Starting AA second half-transformation.
	Starting AB second half-transformation.
	Starting BB second half-transformation.
	Two-electron integral transformation complete.
	(VV|OO)...
	Starting AA/AB first half-transformation.
	Sorting AA/AB half-transformed integrals.
	Starting BB first half-transformation.
	Sorting BB half-transformed integrals.
	First half integral transformation complete.
	Starting AA second half-transformation.
	Starting AB second half-transformation.
	Starting BB second half-transformation.
	Two-electron integral transformation complete.
	(VV|OV)...
	Starting AA second half-transformation.
	Starting AB second half-transformation.
	Starting BB second half-transformation.
	Two-electron integral transformation complete.
	(VV|VV)...
	Starting AA second half-transformation.
	Starting AB second half-transformation.
	Starting BB second half-transformation.
	Two-electron integral transformation complete.
	Frozen core energy     =   -125.47018533053432

	Size of irrep 0 of <AB|CD> integrals:      5.040 (MW) /     40.320 (MB)
	Size of irrep 1 of <AB|CD> integrals:      3.197 (MW) /     25.576 (MB)
	Size of irrep 2 of <AB|CD> integrals:      3.640 (MW) /     29.124 (MB)
	Size of irrep 3 of <AB|CD> integrals:      4.783 (MW) /     38.264 (MB)
	Total:                                    16.660 (MW) /    133.283 (MB)

	Size of irrep 0 of <ab|cd> integrals:      5.327 (MW) /     42.615 (MB)
	Size of irrep 1 of <ab|cd> integrals:      3.430 (MW) /     27.439 (MB)
	Size of irrep 2 of <ab|cd> integrals:      3.893 (MW) /     31.142 (MB)
	Size of irrep 3 of <ab|cd> integrals:      5.072 (MW) /     40.572 (MB)
	Total:                                    17.721 (MW) /    141.768 (MB)

	Size of irrep 0 of <Ab|Cd> integrals:     21.912 (MW) /    175.294 (MB)
	Size of irrep 1 of <Ab|Cd> integrals:     13.242 (MW) /    105.939 (MB)
	Size of irrep 2 of <Ab|Cd> integrals:     15.062 (MW) /    120.497 (MB)
	Size of irrep 3 of <Ab|Cd> integrals:     19.705 (MW) /    157.638 (MB)
	Total:                                    69.921 (MW) /    559.368 (MB)

	Size of irrep 0 of <IA|BC> integrals:      1.469 (MW) /     11.748 (MB)
	Size of irrep 1 of <IA|BC> integrals:      0.694 (MW) /      5.550 (MB)
	Size of irrep 2 of <IA|BC> integrals:      0.908 (MW) /      7.266 (MB)
	Size of irrep 3 of <IA|BC> integrals:      1.198 (MW) /      9.588 (MB)
	Total:                                     4.269 (MW) /     34.152 (MB)

	Size of irrep 0 of <ia|bc> integrals:      1.220 (MW) /      9.758 (MB)
	Size of irrep 1 of <ia|bc> integrals:      0.493 (MW) /      3.941 (MB)
	Size of irrep 2 of <ia|bc> integrals:      0.698 (MW) /      5.588 (MB)
	Size of irrep 3 of <ia|bc> integrals:      0.959 (MW) /      7.675 (MB)
	Total:                                     3.370 (MW) /     26.961 (MB)

	Size of irrep 0 of <Ia|Bc> integrals:      1.507 (MW) /     12.058 (MB)
	Size of irrep 1 of <Ia|Bc> integrals:      0.721 (MW) /      5.764 (MB)
	Size of irrep 2 of <Ia|Bc> integrals:      0.939 (MW) /      7.514 (MB)
	Size of irrep 3 of <Ia|Bc> integrals:      1.234 (MW) /      9.872 (MB)
	Total:                                     4.401 (MW) /     35.208 (MB)

	Size of irrep 0 of <iA|bC> integrals:      1.194 (MW) /      9.549 (MB)
	Size of irrep 1 of <iA|bC> integrals:      0.477 (MW) /      3.814 (MB)
	Size of irrep 2 of <iA|bC> integrals:      0.671 (MW) /      5.371 (MB)
	Size of irrep 3 of <iA|bC> integrals:      0.928 (MW) /      7.422 (MB)
	Total:                                     3.270 (MW) /     26.156 (MB)

	Size of irrep 0 of tIjAb amplitudes:       0.094 (MW) /      0.749 (MB)
	Size of irrep 1 of tIjAb amplitudes:       0.015 (MW) /      0.116 (MB)
	Size of irrep 2 of tIjAb amplitudes:       0.047 (MW) /      0.373 (MB)
	Size of irrep 3 of tIjAb amplitudes:       0.053 (MW) /      0.426 (MB)
	Total:                                     0.208 (MW) /      1.664 (MB)

	Nuclear Rep. energy          =     21.95748476295542
	SCF energy                   =   -150.87354066794222
	One-electron energy          =    -83.27403762072987
	Two-electron (AA) energy     =      9.95147060956526
	Two-electron (BB) energy     =      5.29552913405833
	Two-electron (AB) energy     =     20.66619777674148
	Two-electron energy          =     35.91319752036507
	Reference energy             =   -150.87354066794370

*** tstop() called on c1-9.compute.lan at Wed Mar 10 09:45:06 2021
Module time:
	user time   =     119.99 seconds =       2.00 minutes
	system time =      19.08 seconds =       0.32 minutes
	total time  =         29 seconds =       0.48 minutes
Total time:
	user time   =     179.01 seconds =       2.98 minutes
	system time =      23.58 seconds =       0.39 minutes
	total time  =         40 seconds =       0.67 minutes
            **************************
            *                        *
            *        CCENERGY        *
            *                        *
            **************************

    Nuclear Rep. energy (wfn)     =   21.957484762955417
    SCF energy          (wfn)     = -150.873540667942223
    Reference energy    (file100) = -150.873540667943701

    Input parameters:
    -----------------
    Wave function   =     CCSD_T
    Reference wfn   =     UHF
    Brueckner       =     No
    Memory (Mbytes) =     4000.0
    Maxiter         =     50
    R_Convergence   =     1.0e-10
    E_Convergence   =     1.0e-10
    Restart         =     Yes
    DIIS            =     Yes
    AO Basis        =     NONE
    ABCD            =     NEW
    Cache Level     =     2
    Cache Type      =     LRU
    Print Level     =     1
    Num. of threads =     12
    # Amps to Print =     10
    Print MP2 Amps? =     No
    Analyze T2 Amps =     No
    Print Pair Ener =     No
    Local CC        =     No
    SCS-MP2         =     False
    SCSN-MP2        =     False
    SCS-CCSD        =     False

MP2 correlation energy -0.4157736708680918
                Solving CC Amplitude Equations
                ------------------------------
  Iter             Energy              RMS        T1Diag      D1Diag    New D1Diag    D2Diag
  ----     ---------------------    ---------   ----------  ----------  ----------   --------
     0        -0.415773670868092    0.000e+00    0.000000    0.000000    0.000000    0.000000
     1        -0.426618090081409    5.642e-02    0.010369    0.000000    0.000000    0.000000
     2        -0.434713440907982    1.680e-02    0.010871    0.000000    0.000000    0.000000
     3        -0.436814037001187    8.416e-03    0.012689    0.000000    0.000000    0.000000
     4        -0.436690063449784    2.493e-03    0.013033    0.000000    0.000000    0.000000
     5        -0.436677936251863    1.260e-03    0.013176    0.000000    0.000000    0.000000
     6        -0.436703388135422    4.986e-04    0.013190    0.000000    0.000000    0.000000
     7        -0.436707540594453    2.255e-04    0.013180    0.000000    0.000000    0.000000
     8        -0.436708287231787    6.834e-05    0.013174    0.000000    0.000000    0.000000
     9        -0.436709507745546    2.809e-05    0.013173    0.000000    0.000000    0.000000
    10        -0.436708329850722    1.068e-05    0.013173    0.000000    0.000000    0.000000
    11        -0.436708439757672    5.321e-06    0.013173    0.000000    0.000000    0.000000
    12        -0.436708400183834    2.602e-06    0.013173    0.000000    0.000000    0.000000
    13        -0.436708394243721    1.393e-06    0.013173    0.000000    0.000000    0.000000
    14        -0.436708421873456    6.484e-07    0.013173    0.000000    0.000000    0.000000
    15        -0.436708420510938    1.731e-07    0.013173    0.000000    0.000000    0.000000
    16        -0.436708420383328    1.058e-07    0.013173    0.000000    0.000000    0.000000
    17        -0.436708421193213    2.992e-08    0.013173    0.000000    0.000000    0.000000
    18        -0.436708420776498    1.367e-08    0.013173    0.000000    0.000000    0.000000

      * MP2 total energy                      = -151.289314338811806
      * CCSD total energy                     = -151.310249088454270
      * CCSD(T) total energy                     = -151.322474032662683
*** Psi4 exiting successfully. Buy a developer a beer!
