                               Psi4 1.3.2 release

  ==> Input File <==

--------------------------------------------------------------------------
memory 4 GB

molecule  {
0 3
O   -1.504765099520   -0.002008033377    0.000000000000
H   -0.556587792599    0.152309999491    0.000000000000
H   -1.891208919149    0.878024373117    0.000000000000
O    1.658998545498   -0.062912398959    0.000000000000
}
set {
basis aug-cc-pvtz
reference uhf
e_convergence 10
scf_type pk
freeze_core true
}

set ccenergy {
e_convergence 10
r_convergence 10
}

e = energy('ccsd(t)')

print_out('Stephenergy {}'.format(e))

--------------------------------------------------------------------------

    Molecular point group: cs

    Geometry (in Angstrom), charge = 0, multiplicity = 3:

       Center              X                  Y                   Z               Mass
    ------------   -----------------  -----------------  -----------------  -----------------
         O           -1.504765099520    -0.002008033377     0.000000000000    15.994914619570
         H           -0.556587792599     0.152309999491     0.000000000000     1.007825032230
         H           -1.891208919149     0.878024373117     0.000000000000     1.007825032230
         O            1.658998545498    -0.062912398959     0.000000000000    15.994914619570

  Charge       = 0
  Multiplicity = 3
  Basis Set: AUG-CC-PVTZ
    Blend: AUG-CC-PVTZ

    Orbital Energies [Eh]
    ---------------------

    Alpha Occupied:

       1Ap   -20.733002     2Ap   -20.558614     3Ap    -1.442331
       4Ap    -1.343617     5Ap    -0.733112     1App   -0.732731
       6Ap    -0.710772     7Ap    -0.634440     8Ap    -0.575323
       2App   -0.502051

    Alpha Virtual:

       9Ap     0.034213    10Ap     0.053489    11Ap     0.128152
       3App    0.132895    12Ap     0.148145    13Ap     0.160789
      14Ap     0.183910     4App    0.186758    15Ap     0.214115
      16Ap     0.242062    17Ap     0.264509     5App    0.286315
      18Ap     0.303650     6App    0.320755    19Ap     0.364944
      20Ap     0.406022    21Ap     0.460481    22Ap     0.568310
       7App    0.602637    23Ap     0.608799    24Ap     0.627666
      25Ap     0.681791     8App    0.709655    26Ap     0.714654
       9App    0.736533    10App    0.748576    27Ap     0.751726
      28Ap     0.811646    11App    0.826004    29Ap     0.837383
      12App    0.890767    30Ap     0.891015    31Ap     0.922987
      32Ap     0.945154    13App    0.947242    33Ap     0.951455
      14App    0.972030    34Ap     0.979112    35Ap     1.043353
      36Ap     1.135494    15App    1.154521    37Ap     1.170400
      38Ap     1.185669    39Ap     1.261057    16App    1.294135
      40Ap     1.316677    17App    1.527610    41Ap     1.586011
      18App    1.598725    42Ap     1.714334    43Ap     1.810251
      44Ap     1.842297    45Ap     1.977660    19App    1.977758
      46Ap     1.979408    20App    2.013236    47Ap     2.018101
      21App    2.048460    48Ap     2.060801    22App    2.122378
      49Ap     2.153355    50Ap     2.176208    23App    2.212304
      24App    2.302599    51Ap     2.311843    52Ap     2.337768
      53Ap     2.414764    25App    2.442355    54Ap     2.458190
      55Ap     2.492182    26App    2.526380    56Ap     2.630174
      57Ap     2.711715    27App    2.727125    58Ap     2.734893
      59Ap     2.860432    60Ap     2.933743    28App    2.943681
      61Ap     3.696838    62Ap     3.892826    29App    4.037020
      30App    4.063103    63Ap     4.074034    31App    4.178847
      64Ap     4.209504    65Ap     4.267226    32App    4.302230
      33App    4.391756    66Ap     4.406529    34App    4.431349
      67Ap     4.445075    68Ap     4.602445    69Ap     4.780389
      70Ap     4.961340    35App    5.158706    71Ap     5.175508
      72Ap     5.299648    73Ap     5.395073    36App    5.529563
      74Ap     5.693034    75Ap     6.191361    37App    6.312413
      76Ap     6.312444    38App    6.375447    77Ap     6.378138
      39App    6.517847    78Ap     6.519041    79Ap     6.559161
      80Ap     6.636868    40App    6.735732    81Ap     6.814521
      41App    6.820134    82Ap     6.923665    42App    6.936916
      83Ap     6.962057    84Ap     7.051016    43App    7.149594
      44App    7.272796    85Ap     7.327159    45App    7.329060
      86Ap     7.365372    46App    7.435216    87Ap     7.650595
      88Ap     7.947666    89Ap     7.965120    90Ap     8.816826
      91Ap     9.511419    92Ap    16.354621

    Beta Occupied:

       1Ap   -20.654219     2Ap   -20.558742     3Ap    -1.344185
       4Ap    -1.099866     5Ap    -0.710012     6Ap    -0.580229
       7Ap    -0.541235     1App   -0.502093

    Beta Virtual:

       8Ap     0.034362     2App    0.049395     9Ap     0.049609
      10Ap     0.055227    11Ap     0.143837    12Ap     0.152926
       3App    0.161151    13Ap     0.178123    14Ap     0.207856
      15Ap     0.225328     4App    0.227209    16Ap     0.250851
      17Ap     0.265794     5App    0.286523    18Ap     0.305785
       6App    0.324478    19Ap     0.368842    20Ap     0.416927
      21Ap     0.461737    22Ap     0.571878    23Ap     0.628431
       7App    0.635037    24Ap     0.640521    25Ap     0.686542
      26Ap     0.715298     8App    0.721786     9App    0.739649
      10App    0.750202    27Ap     0.768487    28Ap     0.818019
      29Ap     0.867443    11App    0.869004    30Ap     0.920080
      12App    0.941760    31Ap     0.941923    13App    0.949479
      32Ap     0.952842    33Ap     0.970105    34Ap     1.017761
      14App    1.020314    35Ap     1.045690    15App    1.157693
      36Ap     1.163034    37Ap     1.173862    38Ap     1.216817
      39Ap     1.264108    16App    1.304724    40Ap     1.325468
      17App    1.528315    41Ap     1.588329    18App    1.600174
      42Ap     1.740701    43Ap     1.815808    44Ap     1.852760
      45Ap     1.987312    46Ap     2.015726    19App    2.015735
      20App    2.053739    47Ap     2.065535    21App    2.170333
      48Ap     2.176293    22App    2.179692    49Ap     2.194530
      50Ap     2.244751    23App    2.249812    24App    2.305952
      51Ap     2.317273    52Ap     2.360419    53Ap     2.419392
      25App    2.445023    54Ap     2.458961    55Ap     2.498479
      26App    2.534832    56Ap     2.637287    57Ap     2.727981
      27App    2.728449    58Ap     2.738987    59Ap     2.862248
      60Ap     2.938212    28App    2.944306    61Ap     3.697502
      62Ap     3.895183    29App    4.040006    30App    4.147642
      63Ap     4.193216    64Ap     4.245131    31App    4.262596
      65Ap     4.278028    32App    4.302289    33App    4.391825
      66Ap     4.410388    34App    4.432039    67Ap     4.489357
      68Ap     4.604904    69Ap     4.782016    70Ap     4.963293
      35App    5.158692    71Ap     5.175794    72Ap     5.299887
      73Ap     5.396308    36App    5.529624    74Ap     5.693395
      75Ap     6.192569    76Ap     6.421266    37App    6.421271
      38App    6.450641    77Ap     6.453352    78Ap     6.533826
      39App    6.571783    79Ap     6.600297    80Ap     6.681903
      40App    6.741630    81Ap     6.925857    41App    7.005222
      82Ap     7.006928    42App    7.046237    83Ap     7.068514
      84Ap     7.130732    43App    7.152001    44App    7.273033
      85Ap     7.327458    45App    7.329790    86Ap     7.366176
      46App    7.435623    87Ap     7.651458    88Ap     7.948780
      89Ap     7.965373    90Ap     8.818395    91Ap     9.586382
      92Ap    16.354901

    Final Occupation by Irrep:
             Ap   App
    DOCC [     7,    1 ]
    SOCC [     1,    1 ]

  @UHF Final Energy:  -150.87456155931528

   => Energetics <=

    Nuclear Repulsion Energy =             22.9169297538309316
    One-Electron Energy =                -253.6264107005721371
    Two-Electron Energy =                  79.8349193874259413
    Total Energy =                       -150.8745615593152536

  UHF NO Occupations:
  HONO-2 :    7 Ap 1.9970286
  HONO-1 :    2App 1.0000000
  HONO-0 :    8 Ap 1.0000000
  LUNO+0 :    9 Ap 0.0029714
  LUNO+1 :   10 Ap 0.0017151
  LUNO+2 :   11 Ap 0.0000024
  LUNO+3 :   12 Ap 0.0000017

Computation Completed

Properties will be evaluated at   0.000000,   0.000000,   0.000000 [a0]

Properties computed using the SCF density matrix

  Nuclear Dipole Moment: [e a0]
     X:    -2.2940      Y:     0.9656      Z:     0.0000

  Electronic Dipole Moment: [e a0]
     X:     2.7578      Y:    -0.2914      Z:     0.0000

  Dipole Moment: [e a0]
     X:     0.4638      Y:     0.6742      Z:     0.0000     Total:     0.8183

  Dipole Moment: [D]
     X:     1.1790      Y:     1.7136      Z:     0.0000     Total:     2.0800

*** tstop() called on c5-3.compute.lan at Tue Mar  9 15:30:07 2021
Module time:
	user time   =      62.41 seconds =       1.04 minutes
	system time =       0.88 seconds =       0.01 minutes
	total time  =          5 seconds =       0.08 minutes
Total time:
	user time   =      62.41 seconds =       1.04 minutes
	system time =       0.88 seconds =       0.01 minutes
	total time  =          5 seconds =       0.08 minutes
 MINTS: Wrapper to libmints.
   by Justin Turney

   Calculation information:
      Number of threads:                12
      Number of atoms:                   4
      Number of AO shells:              46
      Number of SO shells:              46
      Number of primitives:             82
      Number of atomic orbitals:       160
      Number of basis functions:       138

      Number of irreps:                  2
      Integral cutoff                 0.00e+00
      Number of functions per irrep: [  92   46 ]

 OEINTS: Overlap, kinetic, potential, dipole, and quadrupole integrals
         stored in file 35.

      Computing two-electron integrals...done
      Computed 22948524 non-zero two-electron integrals.
        Stored in file 33.

*** tstart() called on c5-3.compute.lan
*** at Tue Mar  9 15:30:10 2021

	Wfn Parameters:
	--------------------
	Wavefunction         = CCSD_T
	Number of irreps     = 2
	Number of MOs        = 138
	Number of active MOs = 136
	AO-Basis             = NONE
	Semicanonical        = false
	Reference            = UHF
	Print Level          = 1

	IRREP	# MOs	# FZDC	# DOCC	# SOCC	# VIRT	# FZVR
	-----	-----	------	------	------	------	------
	 Ap	   92	    2	    5	    1	    84	    0
	 App	   46	    0	    1	    1	    44	    0
	Transforming integrals...
	IWL integrals will be deleted.
	(OO|OO)...
	Presorting SO-basis two-electron integrals.
	Sorting File: SO Ints (nn|nn) nbuckets = 1
	Transforming the one-electron integrals and constructing Fock matrices
	Starting AA/AB first half-transformation.
	Sorting AA/AB half-transformed integrals.
	Starting BB first half-transformation.
	Sorting BB half-transformed integrals.
	First half integral transformation complete.
	Starting AA second half-transformation.
	Starting AB second half-transformation.
	Starting BB second half-transformation.
	Two-electron integral transformation complete.
	(OO|OV)...
	Starting AA second half-transformation.
	Starting AB second half-transformation.
	Starting BB second half-transformation.
	Two-electron integral transformation complete.
	(OO|VV)...
	Starting AA second half-transformation.
	Starting AB second half-transformation.
	Starting BB second half-transformation.
	Two-electron integral transformation complete.
	(OV|OO)...
	Starting AA/AB first half-transformation.
	Sorting AA/AB half-transformed integrals.
	Starting BB first half-transformation.
	Sorting BB half-transformed integrals.
	First half integral transformation complete.
	Starting AA second half-transformation.
	Starting AB second half-transformation.
	Starting BB second half-transformation.
	Two-electron integral transformation complete.
	(OV|OV)...
	Starting AA second half-transformation.
	Starting AB second half-transformation.
	Starting BB second half-transformation.
	Two-electron integral transformation complete.
	(OV|VV)...
	Starting AA second half-transformation.
	Starting AB second half-transformation.
	Starting BB second half-transformation.
	Two-electron integral transformation complete.
	(VV|OO)...
	Starting AA/AB first half-transformation.
	Sorting AA/AB half-transformed integrals.
	Starting BB first half-transformation.
	Sorting BB half-transformed integrals.
	First half integral transformation complete.
	Starting AA second half-transformation.
	Starting AB second half-transformation.
	Starting BB second half-transformation.
	Two-electron integral transformation complete.
	(VV|OV)...
	Starting AA second half-transformation.
	Starting AB second half-transformation.
	Starting BB second half-transformation.
	Two-electron integral transformation complete.
	(VV|VV)...
	Starting AA second half-transformation.
	Starting AB second half-transformation.
	Starting BB second half-transformation.
	Two-electron integral transformation complete.
	Frozen core energy     =   -125.85987433496925

	Size of irrep 0 of <AB|CD> integrals:     19.643 (MW) /    157.141 (MB)
	Size of irrep 1 of <AB|CD> integrals:     13.660 (MW) /    109.283 (MB)
	Total:                                    33.303 (MW) /    266.424 (MB)

	Size of irrep 0 of <ab|cd> integrals:     20.794 (MW) /    166.349 (MB)
	Size of irrep 1 of <ab|cd> integrals:     14.631 (MW) /    117.045 (MB)
	Total:                                    35.424 (MW) /    283.394 (MB)

	Size of irrep 0 of <Ab|Cd> integrals:     83.174 (MW) /    665.395 (MB)
	Size of irrep 1 of <Ab|Cd> integrals:     56.550 (MW) /    452.403 (MB)
	Total:                                   139.725 (MW) /   1117.798 (MB)

	Size of irrep 0 of <IA|BC> integrals:      5.323 (MW) /     42.586 (MB)
	Size of irrep 1 of <IA|BC> integrals:      3.193 (MW) /     25.547 (MB)
	Total:                                     8.517 (MW) /     68.133 (MB)

	Size of irrep 0 of <ia|bc> integrals:      4.348 (MW) /     34.780 (MB)
	Size of irrep 1 of <ia|bc> integrals:      2.372 (MW) /     18.972 (MB)
	Total:                                     6.719 (MW) /     53.752 (MB)

	Size of irrep 0 of <Ia|Bc> integrals:      5.472 (MW) /     43.776 (MB)
	Size of irrep 1 of <Ia|Bc> integrals:      3.309 (MW) /     26.470 (MB)
	Total:                                     8.781 (MW) /     70.246 (MB)

	Size of irrep 0 of <iA|bC> integrals:      4.232 (MW) /     33.853 (MB)
	Size of irrep 1 of <iA|bC> integrals:      2.286 (MW) /     18.289 (MB)
	Total:                                     6.518 (MW) /     52.142 (MB)

	Size of irrep 0 of tIjAb amplitudes:       0.292 (MW) /      2.335 (MB)
	Size of irrep 1 of tIjAb amplitudes:       0.120 (MW) /      0.963 (MB)
	Total:                                     0.412 (MW) /      3.297 (MB)

	Nuclear Rep. energy          =     22.91692975383093
	SCF energy                   =   -150.87456155931528
	One-electron energy          =    -84.41123777467961
	Two-electron (AA) energy     =     10.13697060421094
	Two-electron (BB) energy     =      5.39297562506606
	Two-electron (AB) energy     =     20.94967456722442
	Two-electron energy          =     36.47962079650142
	Reference energy             =   -150.87456155931650

*** tstop() called on c5-3.compute.lan at Tue Mar  9 15:30:43 2021
Module time:
	user time   =     106.73 seconds =       1.78 minutes
	system time =      17.20 seconds =       0.29 minutes
	total time  =         33 seconds =       0.55 minutes
Total time:
	user time   =     175.52 seconds =       2.93 minutes
	system time =      18.68 seconds =       0.31 minutes
	total time  =         41 seconds =       0.68 minutes
            **************************
            *                        *
            *        CCENERGY        *
            *                        *
            **************************

    Nuclear Rep. energy (wfn)     =   22.916929753830932
    SCF energy          (wfn)     = -150.874561559315282
    Reference energy    (file100) = -150.874561559316504

    Input parameters:
    -----------------
    Wave function   =     CCSD_T
    Reference wfn   =     UHF
    Brueckner       =     No
    Memory (Mbytes) =     4000.0
    Maxiter         =     50
    R_Convergence   =     1.0e-10
    E_Convergence   =     1.0e-10
    Restart         =     Yes
    DIIS            =     Yes
    AO Basis        =     NONE
    ABCD            =     NEW
    Cache Level     =     2
    Cache Type      =     LRU
    Print Level     =     1
    Num. of threads =     12
    # Amps to Print =     10
    Print MP2 Amps? =     No
    Analyze T2 Amps =     No
    Print Pair Ener =     No
    Local CC        =     No
    SCS-MP2         =     False
    SCSN-MP2        =     False
    SCS-CCSD        =     False

MP2 correlation energy -0.4165199939158661
                Solving CC Amplitude Equations
                ------------------------------
  Iter             Energy              RMS        T1Diag      D1Diag    New D1Diag    D2Diag
  ----     ---------------------    ---------   ----------  ----------  ----------   --------
     0        -0.416519993915866    0.000e+00    0.000000    0.000000    0.000000    0.000000
     1        -0.427265961133066    5.681e-02    0.010538    0.000000    0.000000    0.000000
     2        -0.435344357068881    1.687e-02    0.011019    0.000000    0.000000    0.000000
     3        -0.437461337110455    8.560e-03    0.012887    0.000000    0.000000    0.000000
     4        -0.437335541453175    2.533e-03    0.013253    0.000000    0.000000    0.000000
     5        -0.437321145675663    1.318e-03    0.013409    0.000000    0.000000    0.000000
     6        -0.437348367836504    5.139e-04    0.013431    0.000000    0.000000    0.000000
     7        -0.437352987015599    2.635e-04    0.013425    0.000000    0.000000    0.000000
     8        -0.437353585249597    9.903e-05    0.013420    0.000000    0.000000    0.000000
     9        -0.437354948512560    7.384e-05    0.013422    0.000000    0.000000    0.000000
    10        -0.437353401966597    6.383e-05    0.013423    0.000000    0.000000    0.000000
    11        -0.437353546295568    6.102e-05    0.013424    0.000000    0.000000    0.000000
    12        -0.437353259458534    5.935e-05    0.013426    0.000000    0.000000    0.000000
    13        -0.437353249595431    5.822e-05    0.013429    0.000000    0.000000    0.000000
    14        -0.437354416063041    5.635e-05    0.013448    0.000000    0.000000    0.000000
    15        -0.437354793589639    4.987e-05    0.013520    0.000000    0.000000    0.000000
    16        -0.437354572070745    3.340e-05    0.013660    0.000000    0.000000    0.000000
    17        -0.437354227909083    1.615e-05    0.013729    0.000000    0.000000    0.000000
    18        -0.437354099453103    7.571e-06    0.013746    0.000000    0.000000    0.000000
    19        -0.437354358378603    3.346e-06    0.013751    0.000000    0.000000    0.000000
    20        -0.437354469970388    1.499e-06    0.013752    0.000000    0.000000    0.000000
    21        -0.437354477894431    5.902e-07    0.013752    0.000000    0.000000    0.000000
    22        -0.437354479104596    2.796e-07    0.013752    0.000000    0.000000    0.000000
    23        -0.437354478005097    1.450e-07    0.013752    0.000000    0.000000    0.000000
    24        -0.437354477336994    5.998e-08    0.013752    0.000000    0.000000    0.000000
    25        -0.437354478293240    3.272e-08    0.013752    0.000000    0.000000    0.000000
    26        -0.437354478750966    2.533e-08    0.013752    0.000000    0.000000    0.000000
    27        -0.437354478909457    2.370e-08    0.013752    0.000000    0.000000    0.000000
    28        -0.437354478857894    2.296e-08    0.013752    0.000000    0.000000    0.000000
    29        -0.437354478696549    2.229e-08    0.013752    0.000000    0.000000    0.000000
    30        -0.437354478432998    2.120e-08    0.013752    0.000000    0.000000    0.000000
    31        -0.437354478627947    1.791e-08    0.013752    0.000000    0.000000    0.000000
    32        -0.437354478969649    9.386e-09    0.013752    0.000000    0.000000    0.000000
    33        -0.437354479070109    4.109e-09    0.013752    0.000000    0.000000    0.000000
    34        -0.437354479120907    1.677e-09    0.013752    0.000000    0.000000    0.000000
    35        -0.437354479127457    6.636e-10    0.013752    0.000000    0.000000    0.000000
    36        -0.437354479127114    2.842e-10    0.013752    0.000000    0.000000    0.000000

      * MP2 total energy                      = -151.291081553232374
      * CCSD total energy                     = -151.311916038442831
      * CCSD(T) total energy                     = -151.324258685519624
*** Psi4 exiting successfully. Buy a developer a beer!
