                               Psi4 1.4a2.dev191

  ==> Input File <==

--------------------------------------------------------------------------
memory 10 GB
molecule {
0 2
O
H 1 R1
R1 = 0.9478992047
}
set {
basis aug-cc-pv5z
e_convergence 10
g_convergence gau_verytight
reference uhf
scf_type pk
mp2_type conv
}

optimize("mp2")

--------------------------------------------------------------------------

    Molecular point group: c2v
  Charge       = 0
  Multiplicity = 2
  Basis Set: AUG-CC-PV5Z
    Blend: AUG-CC-PV5Z
  @UHF Final Energy:   -75.42826624235690
    Total Energy =                        -75.4282662423568979
    Molecular point group: c2v
  Basis Set: AUG-CC-PV5Z
    Blend: AUG-CC-PV5Z
  @UHF Final Energy:   -75.42807632537287
    Total Energy =                        -75.4280763253728708
  Basis Set: AUG-CC-PV5Z
    Blend: AUG-CC-PV5Z
  @UHF Final Energy:   -75.42805554869729
    Total Energy =                        -75.4280555486972872
  Basis Set: AUG-CC-PV5Z
    Blend: AUG-CC-PV5Z
  @UHF Final Energy:   -75.42805433183713
    Total Energy =                        -75.4280543318371315
  Charge       = 0
  Multiplicity = 2
  Basis Set: AUG-CC-PV5Z
    Blend: AUG-CC-PV5Z

    Orbital Energies [Eh]
    ---------------------

    Alpha Occupied:

       1A1   -20.637400     2A1    -1.390446     3A1    -0.684206
       1B2    -0.659093     1B1    -0.561962

    Alpha Virtual:

       4A1     0.024060     5A1     0.088835     2B2     0.103593
       2B1     0.108981     6A1     0.137536     3B2     0.179326
       7A1     0.182478     3B1     0.182609     8A1     0.286502
       9A1     0.399422     1A2     0.400194    10A1     0.422284
       4B2     0.453117     4B1     0.468290     5B2     0.474730
       5B1     0.485161    11A1     0.487623    12A1     0.514850
       2A2     0.528588    13A1     0.528891     6B2     0.548698
       6B1     0.558750    14A1     0.661176     7B2     0.971760
       7B1     0.974940     8B2     0.975583     8B1     0.989343
      15A1     0.997468    16A1     1.078803     9B2     1.126718
       9B1     1.139258    17A1     1.139431     3A2     1.167332
      18A1     1.170288     4A2     1.207151    19A1     1.208552
      10B2     1.244544    20A1     1.252030    10B1     1.253397
      11B2     1.279333    11B1     1.279407     5A2     1.330443
      21A1     1.330754    22A1     1.392048    12B2     1.477589
      12B1     1.507456    23A1     1.712330    13B2     1.858032
      13B1     1.897013    24A1     2.212919     6A2     2.284480
      25A1     2.285690    14B2     2.307452    14B1     2.322297
       7A2     2.568059    26A1     2.568059    27A1     2.620807
      15B2     2.636318    15B1     2.659306    28A1     2.711573
      16B2     2.831726    16B1     2.831771    17B2     2.912597
      17B1     2.915222    29A1     2.917504    18B2     2.928034
       8A2     2.933131    30A1     2.943871    18B1     2.950095
       9A2     3.051596    31A1     3.051653    32A1     3.124109
      10A2     3.124110    33A1     3.128748    11A2     3.180488
      34A1     3.180533    19B2     3.304946    19B1     3.326726
      20B2     3.336763    20B1     3.336849    35A1     3.435657
      21B2     3.538933    21B1     3.562435    36A1     3.641544
      12A2     3.819327    37A1     3.821036    38A1     4.281663
      22B2     4.548541    22B1     4.582309    23B2     4.656646
      23B1     4.656739    24B2     4.725167    24B1     4.779335
      39A1     5.038094    13A2     5.405304    40A1     5.405503
      41A1     5.635929    25B2     5.798973    25B1     5.825173
      14A2     5.912517    42A1     5.912704    26B2     6.148349
      26B1     6.170034    27B2     6.185520    27B1     6.185520
      43A1     6.230349    15A2     6.456299    44A1     6.456299
      28B2     6.658335    28B1     6.703899    45A1     6.877439
      46A1     7.086054    16A2     7.086154    47A1     7.102874
      29B2     7.150014    29B1     7.151676    30B2     7.181792
      17A2     7.188481    48A1     7.194209    30B1     7.211393
      31B2     7.232799    31B1     7.235728    32B2     7.586737
      32B1     7.586763    49A1     7.707749    18A2     7.709145
      50A1     7.817769    19A2     7.904952    51A1     7.905157
      33B2     8.483659    33B1     8.522576    52A1     8.618350
      53A1     8.828939    34B2     9.096006    34B1     9.141067
      20A2     9.380834    54A1     9.381315    55A1    10.285083
      35B2    10.444281    35B1    10.491507    56A1    12.777624
      36B2    12.971346    36B1    12.971346    21A2    13.136090
      57A1    13.136090    58A1    13.498998    22A2    13.499138
      37B2    13.885682    37B1    13.885685    59A1    14.079418
      60A1    14.127891    23A2    14.127894    38B2    14.191365
      38B1    14.210493    39B2    14.466781    39B1    14.481030
      61A1    14.676273    62A1    15.551656    24A2    15.652328
      63A1    15.654439    40B2    15.945715    40B1    15.987414
      41B2    16.211361    41B1    16.211361    25A2    16.347718
      64A1    16.347718    42B2    16.762727    42B1    16.811113
      43B2    16.864539    43B1    16.864547    65A1    16.907470
      44B2    17.782879    44B1    17.815369    66A1    17.866873
      26A2    17.870693    67A1    18.038152    45B2    18.163969
      45B1    18.194326    68A1    18.584111    69A1    19.068572
      27A2    19.068573    46B2    19.176886    46B1    19.176895
      47B2    19.218543    47B1    19.218554    70A1    19.517974
      28A2    19.577473    71A1    19.591091    29A2    19.981071
      72A1    19.982111    48B2    20.473840    48B1    20.528481
      73A1    21.074391    30A2    22.400180    74A1    22.400697
      49B2    23.206786    49B1    23.257102    50B2    23.953332
      50B1    24.000028    75A1    25.988285    76A1    26.263000
      77A1    65.019320

    Beta Occupied:

       1A1   -20.597753     2A1    -1.232307     3A1    -0.640218
       1B1    -0.513962

    Beta Virtual:

       4A1     0.024923     1B2     0.056020     5A1     0.089765
       2B1     0.110033     6A1     0.140628     2B2     0.147821
       3B1     0.182544     7A1     0.184223     3B2     0.190598
       8A1     0.291489     1A2     0.405339     9A1     0.405385
      10A1     0.425069     4B1     0.471465     4B2     0.479211
       5B1     0.485345    11A1     0.490703     5B2     0.508577
      12A1     0.520176     2A2     0.528909    13A1     0.529158
       6B1     0.560318     6B2     0.578777    14A1     0.670841
       7B1     0.978754     7B2     0.978771     8B1     0.990025
       8B2     1.003409    15A1     1.004124    16A1     1.084886
       9B2     1.131177     9B1     1.138688    17A1     1.148453
       3A2     1.173206    18A1     1.173831     4A2     1.229749
      19A1     1.229911    10B2     1.252779    10B1     1.253724
      20A1     1.258658    11B2     1.279895    11B1     1.279898
       5A2     1.343988    21A1     1.344484    22A1     1.402294
      12B1     1.513238    12B2     1.533183    23A1     1.720681
      13B1     1.907789    13B2     1.936435    24A1     2.220197
       6A2     2.292309    25A1     2.292660    14B2     2.313100
      14B1     2.320592    26A1     2.574372     7A2     2.574372
      27A1     2.632488    15B2     2.656882    15B1     2.661663
      28A1     2.720328    16B1     2.851704    16B2     2.851706
      17B2     2.923012    17B1     2.923455    29A1     2.932986
       8A2     2.940013    18B2     2.943369    30A1     2.948214
      18B1     2.951175     9A2     3.065418    31A1     3.065547
      32A1     3.126078    10A2     3.126079    33A1     3.137902
      11A2     3.235507    34A1     3.236495    19B1     3.330700
      19B2     3.332594    20B1     3.338211    20B2     3.338277
      35A1     3.449423    21B2     3.550969    21B1     3.564280
      36A1     3.652578    12A2     3.835580    37A1     3.835872
      38A1     4.290469    22B2     4.583572    22B1     4.588839
      23B2     4.660089    23B1     4.660096    24B1     4.793859
      24B2     4.808313    39A1     5.056063    40A1     5.410961
      13A2     5.410982    41A1     5.643275    25B2     5.817345
      25B1     5.827499    14A2     5.920108    42A1     5.920119
      26B2     6.156563    26B1     6.170292    27B2     6.197102
      27B1     6.197102    43A1     6.240184    44A1     6.466172
      15A2     6.466172    28B2     6.702332    28B1     6.713298
      45A1     6.900426    46A1     7.110527    16A2     7.110744
      47A1     7.112785    29B2     7.169527    29B1     7.170859
      30B2     7.194015    17A2     7.199160    48A1     7.201478
      30B1     7.216176    31B2     7.253307    31B1     7.253672
      32B2     7.620008    32B1     7.620010    49A1     7.739532
      18A2     7.740218    50A1     7.825476    19A2     7.946825
      51A1     7.947377    33B2     8.505017    33B1     8.526862
      52A1     8.637442    53A1     8.842611    34B2     9.131343
      34B1     9.149613    20A2     9.419751    54A1     9.419847
      55A1    10.295588    35B2    10.489009    35B1    10.501617
      56A1    12.806850    36B2    12.971696    36B1    12.971696
      57A1    13.136306    21A2    13.136306    58A1    13.502016
      22A2    13.502096    37B2    13.887473    37B1    13.887474
      59A1    14.085539    60A1    14.126654    23A2    14.126660
      38B2    14.196736    38B1    14.210469    39B2    14.470658
      39B1    14.481060    61A1    14.679185    62A1    15.557490
      24A2    15.658114    63A1    15.659164    40B2    15.983165
      40B1    15.995674    41B2    16.236571    41B1    16.236571
      25A2    16.368430    64A1    16.368430    42B2    16.806286
      42B1    16.821191    43B2    16.881007    43B1    16.881010
      65A1    16.910889    44B2    17.793666    44B1    17.817282
      66A1    17.883792    26A2    17.885619    67A1    18.046396
      45B2    18.178426    45B1    18.197427    68A1    18.607561
      69A1    19.107023    27A2    19.107024    46B2    19.210428
      46B1    19.210429    47B2    19.263505    47B1    19.263506
      70A1    19.537856    28A2    19.602557    71A1    19.607447
      29A2    20.010560    72A1    20.010890    48B2    20.507462
      48B1    20.538543    73A1    21.091193    30A2    22.446187
      74A1    22.446282    49B2    23.238641    49B1    23.265533
      50B2    23.985524    50B1    24.008963    75A1    25.996871
      76A1    26.273284    77A1    65.034755

    Final Occupation by Irrep:
             A1    A2    B1    B2
    DOCC [     3,    0,    1,    0 ]
    SOCC [     0,    0,    0,    1 ]

  @UHF Final Energy:   -75.42805426219553

   => Energetics <=

    Nuclear Repulsion Energy =              4.3875107479657132
    One-Electron Energy =                -112.7137853589536007
    Two-Electron Energy =                  32.8982203487923499
    Total Energy =                        -75.4280542621955448

  UHF NO Occupations:
  HONO-2 :    2 A1 1.9992210
  HONO-1 :    3 A1 1.9978575
  HONO-0 :    1 B2 1.0000000
  LUNO+0 :    4 A1 0.0021425
  LUNO+1 :    5 A1 0.0007790
  LUNO+2 :    2 B1 0.0006274
  LUNO+3 :    6 A1 0.0000013

Computation Completed

Properties will be evaluated at   0.000000,   0.000000,   0.000000 [a0]

Properties computed using the SCF density matrix

  Nuclear Dipole Moment: [e a0]
     X:     0.0000      Y:     0.0000      Z:     0.8507

  Electronic Dipole Moment: [e a0]
     X:     0.0000      Y:     0.0000      Z:    -0.1608

  Dipole Moment: [e a0]
     X:     0.0000      Y:     0.0000      Z:     0.6899     Total:     0.6899

  Dipole Moment: [D]
     X:     0.0000      Y:     0.0000      Z:     1.7534     Total:     1.7534

*** tstop() called on c4-9.compute.lan at Tue Feb 23 13:48:40 2021
Module time:
	user time   =      30.08 seconds =       0.50 minutes
	system time =       2.21 seconds =       0.04 minutes
	total time  =         32 seconds =       0.53 minutes
Total time:
	user time   =    1114.79 seconds =      18.58 minutes
	system time =     179.25 seconds =       2.99 minutes
	total time  =       1327 seconds =      22.12 minutes
 MINTS: Wrapper to libmints.
   by Justin Turney

   Calculation information:
      Number of threads:                 1
      Number of atoms:                   2
      Number of AO shells:              47
      Number of SO shells:              47
      Number of primitives:             71
      Number of atomic orbitals:       287
      Number of basis functions:       207

      Number of irreps:                  4
      Integral cutoff                 0.00e+00
      Number of functions per irrep: [  77   30   50   50 ]

 OEINTS: Overlap, kinetic, potential, dipole, and quadrupole integrals
         stored in file 35.

      Computing two-electron integrals...done
      Computed 53502145 non-zero two-electron integrals.
        Stored in file 33.

*** tstart() called on c4-9.compute.lan
*** at Tue Feb 23 13:48:55 2021

 ==============================================================================
 ==============================================================================
 ==============================================================================

                       MP2
              Program Written by Ugur Bozkaya,
              Latest Revision June 25, 2014.

 ==============================================================================
 ==============================================================================
 ==============================================================================

	RMS orbital gradient is changed to :     1.00e-07
	MAX orbital gradient is changed to :     1.00e-04
	MO spaces per irreps...

	IRREP   FC   AOCC  BOCC  AVIR    BVIR  FV
	==========================================
	  A1     0     3     3    74     74     0
	  A2     0     0     0    30     30     0
	  B1     0     1     1    49     49     0
	  B2     0     1     0    49     50     0
	==========================================

	Computing MP2 energy using SCF MOs (Canonical MP2)...
	==============================================================================
	Nuclear Repulsion Energy (a.u.)    :     4.38751074796571
	SCF Energy (a.u.)                  :   -75.42805426219553
	REF Energy (a.u.)                  :   -75.42805426219553
	Alpha-Alpha Contribution (a.u.)    :    -0.03807397993827
	Alpha-Beta Contribution (a.u.)     :    -0.20603429040674
	Beta-Beta Contribution (a.u.)      :    -0.01840715820546
	Scaled_SS Correlation Energy (a.u.):    -0.01882704604791
	Scaled_OS Correlation Energy (a.u.):    -0.24724114848809
	SCS-MP2 Total Energy (a.u.)        :   -75.69412245673153
	SOS-MP2 Total Energy (a.u.)        :   -75.42805426219553
	SCSN-MP2 Total Energy (a.u.)       :   -75.52746106532850
	SCS-MP2-VDW Total Energy (a.u.)    :   -75.72001872298803
	SOS-PI-MP2 Total Energy (a.u.)     :   -75.71650226876497
	MP2 Correlation Energy (a.u.)      :    -0.26251542855047
	MP2 Total Energy (a.u.)            :   -75.69056969074600
	==============================================================================
	Analytic gradient computation is starting...
	Computing response density matrices...
	Computing off-diagonal blocks of GFM...
	Forming independent-pairs...
	Number of alpha independent-pairs:320
	Number of beta independent-pairs :271
	Computing orbital gradient...
	Computing diagonal blocks of GFM...
	Solving orbital Z-vector equations...
	Forming relaxed response density matrices...
	Forming relaxed GFM...
	Writing particle density matrices and GFM to disk...
	Necessary information has been sent to DERIV, which will take care of the rest.

*** tstop() called on c4-9.compute.lan at Tue Feb 23 13:49:56 2021
Module time:
	user time   =      32.51 seconds =       0.54 minutes
	system time =      26.06 seconds =       0.43 minutes
	total time  =         61 seconds =       1.02 minutes
Total time:
	user time   =    1161.92 seconds =      19.37 minutes
	system time =     206.11 seconds =       3.44 minutes
	total time  =       1403 seconds =      23.38 minutes
  Cartesian Displacement SALCs
  By SALC:
  Number of SALCs: 2, nirreps: A1
  Project out translations: False
  Project out rotations: False
	irrep = 0, ncomponent = 1
		0: atom 0, direction z, coef 1.000000
	irrep = 0, ncomponent = 1
		0: atom 1, direction z, coef 1.000000

  By Atomic Center:
  Number of atomic centers: 2
   Atomic Center 0:
	x component, size = 0
	y component, size = 0
	z component, size = 1
		0: salc 0, irrep 0, coef 1.000000
   Atomic Center 1:
	x component, size = 0
	y component, size = 0
	z component, size = 1
		0: salc 1, irrep 0, coef 1.000000

    Molecular point group: c2v
    Full point group: C_inf_v

    Geometry (in Bohr), charge = 0, multiplicity = 2:

       Center              X                  Y                   Z
    ------------   -----------------  -----------------  -----------------
         O            0.000000000000     0.000000000000    -0.108078181778
         H            0.000000000000     0.000000000000     1.715279174944

	Presorting MO-basis TPDMs.
	Sorting File: MO TPDM (AA|AA) nbuckets = 1
	Sorting File: MO TPDM (AA|aa) nbuckets = 1
	Sorting File: MO TPDM (aa|aa) nbuckets = 1
	Starting first half-transformation.
	Sorting half-transformed TPDMs.
	First half integral transformation complete.

  -Nuclear Repulsion Energy 1st Derivatives:
     Atom            X                  Y                   Z
    ------   -----------------  -----------------  -----------------
       1        0.000000000000     0.000000000000     2.406281320439
       2        0.000000000000     0.000000000000    -2.406281320439

  -Core Hamiltonian Gradient:
     Atom            X                  Y                   Z
    ------   -----------------  -----------------  -----------------
       1        0.000000000000     0.000000000000    -4.839858051909
       2        0.000000000000     0.000000000000     4.839858051909

  -Lagrangian contribution to gradient:
     Atom            X                  Y                   Z
    ------   -----------------  -----------------  -----------------
       1        0.000000000000     0.000000000000     0.215789209465
       2        0.000000000000     0.000000000000    -0.215789209465

  -Two-electron contribution to gradient:
     Atom            X                  Y                   Z
    ------   -----------------  -----------------  -----------------
       1        0.000000000000     0.000000000000     2.217787665479
       2        0.000000000000     0.000000000000    -2.217787665479

  -Total gradient:
     Atom            X                  Y                   Z
    ------   -----------------  -----------------  -----------------
       1        0.000000000000     0.000000000000     0.000000143473
       2        0.000000000000     0.000000000000    -0.000000143474

			-----------------------------------------
			 OPTKING 2.0: for geometry optimizations
			  - R.A. King,  Bethel University
			-----------------------------------------

	Previous internal coordinate definitions found.
	---Fragment 1 Geometry and Gradient---
	 O           0.0000000000        0.0000000000       -0.1080781818
	 H           0.0000000000        0.0000000000        1.7152791749
	             0.0000000000        0.0000000000        0.0000001435
	             0.0000000000        0.0000000000       -0.0000001435

	---Fragment 1 Intrafragment Coordinates---
	 - Coordinate -           - BOHR/RAD -       - ANG/DEG -
	 R(1,2)           =         1.823357	       0.964879

	Current energy   :       -75.6905696907

	Energy change for the previous step:
		Projected    :        -0.0000000000
		Actual       :        -0.0000000001

  **** Optimization is complete! (in 5 steps) ****
    Final optimized geometry and variables:
    Molecular point group: c2v

    Geometry (in Angstrom), charge = 0, multiplicity = 2:

    O
    H             1          R1

*** Psi4 exiting successfully. Buy a developer a beer!
