                               Psi4 1.3.2 release

  ==> Input File <==

--------------------------------------------------------------------------
memory 4 GB

molecule  {
0 1
O    0.000000000000    0.000000000000   -0.071739941783
H    0.000000000000   -0.766000000000    0.569282468157
H   -0.000000000000    0.766000000000    0.569282468157
}
set {
basis aug-cc-pvtz
reference uhf
e_convergence 10
scf_type pk
freeze_core true
}

set ccenergy {
e_convergence 10
r_convergence 10
}

e = energy('ccsd(t)')

print_out('Stephenergy {}'.format(e))

--------------------------------------------------------------------------

    Molecular point group: c2v

    Geometry (in Angstrom), charge = 0, multiplicity = 1:

       Center              X                  Y                   Z               Mass
    ------------   -----------------  -----------------  -----------------  -----------------
         O            0.000000000000     0.000000000000    -0.071739941783    15.994914619570
         H            0.000000000000    -0.766000000000     0.569282468157     1.007825032230
         H           -0.000000000000     0.766000000000     0.569282468157     1.007825032230

  Charge       = 0
  Multiplicity = 1
  Basis Set: AUG-CC-PVTZ
    Blend: AUG-CC-PVTZ

    Orbital Energies [Eh]
    ---------------------

    Alpha Occupied:

       1A1   -20.576320     2A1    -1.336106     1B2    -0.687635
       3A1    -0.585340     1B1    -0.508473

    Alpha Virtual:

       4A1     0.028594     2B2     0.047791     5A1     0.135002
       2B1     0.161175     6A1     0.174659     3B2     0.184004
       4B2     0.222019     7A1     0.243798     1A2     0.266740
       3B1     0.294215     8A1     0.306559     5B2     0.364914
       9A1     0.429511     6B2     0.457534     7B2     0.594943
      10A1     0.659128    11A1     0.702839     2A2     0.726888
       4B1     0.732389    12A1     0.822495     5B1     0.846910
      13A1     0.901534     8B2     0.903790     6B1     0.917291
       3A2     0.919778     9B2     0.930007    14A1     0.949847
      15A1     1.006471    10B2     1.030788     7B1     1.074816
      11B2     1.097851     4A2     1.170741    16A1     1.175805
      12B2     1.276170     5A2     1.494966    17A1     1.509096
       8B1     1.551416    13B2     1.820445    18A1     1.829514
      14B2     1.927667    19A1     2.086615     9B1     2.260511
       6A2     2.306274    20A1     2.333560    21A1     2.414812
      10B1     2.415365    15B2     2.443709    22A1     2.499363
      16B2     2.696190    11B1     2.701677    23A1     2.750415
      17B2     2.772735     7A2     2.863534    18B2     3.604071
      24A1     3.651372     8A2     4.006294    12B1     4.038848
      25A1     4.094660    19B2     4.210317    13B1     4.219851
      26A1     4.348569     9A2     4.357202    14B1     4.380803
      20B2     4.494494    27A1     4.687136    21B2     4.753590
      10A2     5.037108    22B2     5.093251    28A1     5.175561
      23B2     5.193190    15B1     5.420030    29A1     5.549358
      30A1     6.172267    24B2     6.500208    16B1     6.695793
      31A1     6.868818    17B1     7.068181    25B2     7.150142
      11A2     7.224336    18B1     7.243358    12A2     7.344932
      32A1     7.347844    33A1     7.422169    34A1     7.800873
      26B2     7.848245    27B2     8.626778    35A1    14.607513

    Beta Occupied:

       1A1   -20.576320     2A1    -1.336106     1B2    -0.687635
       3A1    -0.585340     1B1    -0.508473

    Beta Virtual:

       4A1     0.028594     2B2     0.047791     5A1     0.135002
       2B1     0.161175     6A1     0.174659     3B2     0.184004
       4B2     0.222019     7A1     0.243798     1A2     0.266740
       3B1     0.294215     8A1     0.306559     5B2     0.364914
       9A1     0.429511     6B2     0.457534     7B2     0.594943
      10A1     0.659128    11A1     0.702839     2A2     0.726888
       4B1     0.732389    12A1     0.822495     5B1     0.846910
      13A1     0.901534     8B2     0.903790     6B1     0.917291
       3A2     0.919778     9B2     0.930007    14A1     0.949847
      15A1     1.006471    10B2     1.030788     7B1     1.074816
      11B2     1.097851     4A2     1.170741    16A1     1.175805
      12B2     1.276170     5A2     1.494966    17A1     1.509096
       8B1     1.551416    13B2     1.820445    18A1     1.829514
      14B2     1.927667    19A1     2.086615     9B1     2.260511
       6A2     2.306274    20A1     2.333560    21A1     2.414812
      10B1     2.415365    15B2     2.443709    22A1     2.499363
      16B2     2.696190    11B1     2.701677    23A1     2.750415
      17B2     2.772735     7A2     2.863534    18B2     3.604071
      24A1     3.651372     8A2     4.006294    12B1     4.038848
      25A1     4.094660    19B2     4.210317    13B1     4.219851
      26A1     4.348569     9A2     4.357202    14B1     4.380803
      20B2     4.494494    27A1     4.687136    21B2     4.753590
      10A2     5.037108    22B2     5.093251    28A1     5.175561
      23B2     5.193190    15B1     5.420030    29A1     5.549358
      30A1     6.172267    24B2     6.500208    16B1     6.695793
      31A1     6.868818    17B1     7.068181    25B2     7.150142
      11A2     7.224336    18B1     7.243358    12A2     7.344932
      32A1     7.347844    33A1     7.422169    34A1     7.800873
      26B2     7.848245    27B2     8.626778    35A1    14.607513

    Final Occupation by Irrep:
             A1    A2    B1    B2
    DOCC [     3,    0,    1,    1 ]
    SOCC [     0,    0,    0,    0 ]

  @UHF Final Energy:   -76.05432534900578

   => Energetics <=

    Nuclear Repulsion Energy =              8.8221505783445409
    One-Electron Energy =                -122.3652048144967068
    Two-Electron Energy =                  37.4887288871463795
    Total Energy =                        -76.0543253490057793

  UHF NO Occupations:
  HONO-2 :    1 B2 2.0000000
  HONO-1 :    3 A1 2.0000000
  HONO-0 :    1 B1 2.0000000
  LUNO+0 :    4 A1 0.0000000
  LUNO+1 :    5 A1 0.0000000
  LUNO+2 :    6 A1 0.0000000
  LUNO+3 :    2 B2 0.0000000

Computation Completed

Properties will be evaluated at   0.000000,   0.000000,   0.000000 [a0]

Properties computed using the SCF density matrix

  Nuclear Dipole Moment: [e a0]
     X:     0.0000      Y:     0.0000      Z:     1.0670

  Electronic Dipole Moment: [e a0]
     X:     0.0000      Y:     0.0000      Z:    -0.2455

  Dipole Moment: [e a0]
     X:     0.0000      Y:     0.0000      Z:     0.8216     Total:     0.8216

  Dipole Moment: [D]
     X:     0.0000      Y:     0.0000      Z:     2.0882     Total:     2.0882

*** tstop() called on c2-24.compute.lan at Mon Mar  8 09:39:51 2021
Module time:
	user time   =      14.05 seconds =       0.23 minutes
	system time =       0.67 seconds =       0.01 minutes
	total time  =          2 seconds =       0.03 minutes
Total time:
	user time   =      14.05 seconds =       0.23 minutes
	system time =       0.67 seconds =       0.01 minutes
	total time  =          2 seconds =       0.03 minutes
 MINTS: Wrapper to libmints.
   by Justin Turney

   Calculation information:
      Number of threads:                12
      Number of atoms:                   3
      Number of AO shells:              32
      Number of SO shells:              23
      Number of primitives:             52
      Number of atomic orbitals:       105
      Number of basis functions:        92

      Number of irreps:                  4
      Integral cutoff                 0.00e+00
      Number of functions per irrep: [  35   12   18   27 ]

 OEINTS: Overlap, kinetic, potential, dipole, and quadrupole integrals
         stored in file 35.

      Computing two-electron integrals...done
      Computed 2223233 non-zero two-electron integrals.
        Stored in file 33.

*** tstart() called on c2-24.compute.lan
*** at Mon Mar  8 09:39:52 2021

	Wfn Parameters:
	--------------------
	Wavefunction         = CCSD_T
	Number of irreps     = 4
	Number of MOs        = 92
	Number of active MOs = 91
	AO-Basis             = NONE
	Semicanonical        = false
	Reference            = UHF
	Print Level          = 1

	IRREP	# MOs	# FZDC	# DOCC	# SOCC	# VIRT	# FZVR
	-----	-----	------	------	------	------	------
	 A1	   35	    1	    2	    0	    32	    0
	 A2	   12	    0	    0	    0	    12	    0
	 B1	   18	    0	    1	    0	    17	    0
	 B2	   27	    0	    1	    0	    26	    0
	Transforming integrals...
	IWL integrals will be deleted.
	(OO|OO)...
	Presorting SO-basis two-electron integrals.
	Sorting File: SO Ints (nn|nn) nbuckets = 1
	Transforming the one-electron integrals and constructing Fock matrices
	Starting AA/AB first half-transformation.
	Sorting AA/AB half-transformed integrals.
	Starting BB first half-transformation.
	Sorting BB half-transformed integrals.
	First half integral transformation complete.
	Starting AA second half-transformation.
	Starting AB second half-transformation.
	Starting BB second half-transformation.
	Two-electron integral transformation complete.
	(OO|OV)...
	Starting AA second half-transformation.
	Starting AB second half-transformation.
	Starting BB second half-transformation.
	Two-electron integral transformation complete.
	(OO|VV)...
	Starting AA second half-transformation.
	Starting AB second half-transformation.
	Starting BB second half-transformation.
	Two-electron integral transformation complete.
	(OV|OO)...
	Starting AA/AB first half-transformation.
	Sorting AA/AB half-transformed integrals.
	Starting BB first half-transformation.
	Sorting BB half-transformed integrals.
	First half integral transformation complete.
	Starting AA second half-transformation.
	Starting AB second half-transformation.
	Starting BB second half-transformation.
	Two-electron integral transformation complete.
	(OV|OV)...
	Starting AA second half-transformation.
	Starting AB second half-transformation.
	Starting BB second half-transformation.
	Two-electron integral transformation complete.
	(OV|VV)...
	Starting AA second half-transformation.
	Starting AB second half-transformation.
	Starting BB second half-transformation.
	Two-electron integral transformation complete.
	(VV|OO)...
	Starting AA/AB first half-transformation.
	Sorting AA/AB half-transformed integrals.
	Starting BB first half-transformation.
	Sorting BB half-transformed integrals.
	First half integral transformation complete.
	Starting AA second half-transformation.
	Starting AB second half-transformation.
	Starting BB second half-transformation.
	Two-electron integral transformation complete.
	(VV|OV)...
	Starting AA second half-transformation.
	Starting AB second half-transformation.
	Starting BB second half-transformation.
	Two-electron integral transformation complete.
	(VV|VV)...
	Starting AA second half-transformation.
	Starting AB second half-transformation.
	Starting BB second half-transformation.
	Two-electron integral transformation complete.
	Frozen core energy     =    -61.22473871062991

	Size of irrep 0 of <AB|CD> integrals:      1.047 (MW) /      8.372 (MB)
	Size of irrep 1 of <AB|CD> integrals:      0.682 (MW) /      5.458 (MB)
	Size of irrep 2 of <AB|CD> integrals:      0.733 (MW) /      5.862 (MB)
	Size of irrep 3 of <AB|CD> integrals:      1.073 (MW) /      8.586 (MB)
	Total:                                     3.535 (MW) /     28.279 (MB)

	Size of irrep 0 of <ab|cd> integrals:      1.047 (MW) /      8.372 (MB)
	Size of irrep 1 of <ab|cd> integrals:      0.682 (MW) /      5.458 (MB)
	Size of irrep 2 of <ab|cd> integrals:      0.733 (MW) /      5.862 (MB)
	Size of irrep 3 of <ab|cd> integrals:      1.073 (MW) /      8.586 (MB)
	Total:                                     3.535 (MW) /     28.279 (MB)

	Size of irrep 0 of <Ab|Cd> integrals:      4.550 (MW) /     36.398 (MB)
	Size of irrep 1 of <Ab|Cd> integrals:      2.729 (MW) /     21.833 (MB)
	Size of irrep 2 of <Ab|Cd> integrals:      2.931 (MW) /     23.448 (MB)
	Size of irrep 3 of <Ab|Cd> integrals:      4.293 (MW) /     34.345 (MB)
	Total:                                    14.503 (MW) /    116.023 (MB)

	Size of irrep 0 of <IA|BC> integrals:      0.228 (MW) /      1.826 (MB)
	Size of irrep 1 of <IA|BC> integrals:      0.111 (MW) /      0.885 (MB)
	Size of irrep 2 of <IA|BC> integrals:      0.134 (MW) /      1.068 (MB)
	Size of irrep 3 of <IA|BC> integrals:      0.199 (MW) /      1.591 (MB)
	Total:                                     0.671 (MW) /      5.371 (MB)

	Size of irrep 0 of <ia|bc> integrals:      0.228 (MW) /      1.826 (MB)
	Size of irrep 1 of <ia|bc> integrals:      0.111 (MW) /      0.885 (MB)
	Size of irrep 2 of <ia|bc> integrals:      0.134 (MW) /      1.068 (MB)
	Size of irrep 3 of <ia|bc> integrals:      0.199 (MW) /      1.591 (MB)
	Total:                                     0.671 (MW) /      5.371 (MB)

	Size of irrep 0 of <Ia|Bc> integrals:      0.228 (MW) /      1.826 (MB)
	Size of irrep 1 of <Ia|Bc> integrals:      0.111 (MW) /      0.885 (MB)
	Size of irrep 2 of <Ia|Bc> integrals:      0.134 (MW) /      1.068 (MB)
	Size of irrep 3 of <Ia|Bc> integrals:      0.199 (MW) /      1.591 (MB)
	Total:                                     0.671 (MW) /      5.371 (MB)

	Size of irrep 0 of <iA|bC> integrals:      0.228 (MW) /      1.826 (MB)
	Size of irrep 1 of <iA|bC> integrals:      0.111 (MW) /      0.885 (MB)
	Size of irrep 2 of <iA|bC> integrals:      0.134 (MW) /      1.068 (MB)
	Size of irrep 3 of <iA|bC> integrals:      0.199 (MW) /      1.591 (MB)
	Total:                                     0.671 (MW) /      5.371 (MB)

	Size of irrep 0 of tIjAb amplitudes:       0.013 (MW) /      0.102 (MB)
	Size of irrep 1 of tIjAb amplitudes:       0.003 (MW) /      0.026 (MB)
	Size of irrep 2 of tIjAb amplitudes:       0.007 (MW) /      0.055 (MB)
	Size of irrep 3 of tIjAb amplitudes:       0.008 (MW) /      0.066 (MB)
	Total:                                     0.031 (MW) /      0.250 (MB)

	Nuclear Rep. energy          =      8.82215057834454
	SCF energy                   =    -76.05432534900578
	One-electron energy          =    -41.06836646484959
	Two-electron (AA) energy     =      3.38572606565188
	Two-electron (BB) energy     =      3.38572606565188
	Two-electron (AB) energy     =     10.64517711682528
	Two-electron energy          =     17.41662924812903
	Reference energy             =    -76.05432534900592

*** tstop() called on c2-24.compute.lan at Mon Mar  8 09:40:01 2021
Module time:
	user time   =      74.68 seconds =       1.24 minutes
	system time =       4.48 seconds =       0.07 minutes
	total time  =          9 seconds =       0.15 minutes
Total time:
	user time   =      92.96 seconds =       1.55 minutes
	system time =       5.42 seconds =       0.09 minutes
	total time  =         12 seconds =       0.20 minutes
            **************************
            *                        *
            *        CCENERGY        *
            *                        *
            **************************

    Nuclear Rep. energy (wfn)     =    8.822150578344541
    SCF energy          (wfn)     =  -76.054325349005779
    Reference energy    (file100) =  -76.054325349005921

    Input parameters:
    -----------------
    Wave function   =     CCSD_T
    Reference wfn   =     UHF
    Brueckner       =     No
    Memory (Mbytes) =     4000.0
    Maxiter         =     50
    R_Convergence   =     1.0e-10
    E_Convergence   =     1.0e-10
    Restart         =     Yes
    DIIS            =     Yes
    AO Basis        =     NONE
    ABCD            =     NEW
    Cache Level     =     2
    Cache Type      =     LRU
    Print Level     =     1
    Num. of threads =     12
    # Amps to Print =     10
    Print MP2 Amps? =     No
    Analyze T2 Amps =     No
    Print Pair Ener =     No
    Local CC        =     No
    SCS-MP2         =     False
    SCSN-MP2        =     False
    SCS-CCSD        =     False

MP2 correlation energy -0.2721387722348325
                Solving CC Amplitude Equations
                ------------------------------
  Iter             Energy              RMS        T1Diag      D1Diag    New D1Diag    D2Diag
  ----     ---------------------    ---------   ----------  ----------  ----------   --------
     0        -0.272138772234833    0.000e+00    0.000000    0.000000    0.000000    0.000000
     1        -0.269620055442871    5.080e-02    0.012866    0.000000    0.000000    0.000000
     2        -0.275157080276517    1.440e-02    0.012602    0.000000    0.000000    0.000000
     3        -0.276525131871577    6.814e-03    0.014656    0.000000    0.000000    0.000000
     4        -0.276413758326212    1.391e-03    0.015008    0.000000    0.000000    0.000000
     5        -0.276397860765764    5.142e-04    0.015155    0.000000    0.000000    0.000000
     6        -0.276398744314105    1.294e-04    0.015188    0.000000    0.000000    0.000000
     7        -0.276397315337228    4.499e-05    0.015195    0.000000    0.000000    0.000000
     8        -0.276397405782146    1.271e-05    0.015197    0.000000    0.000000    0.000000
     9        -0.276397448645904    3.987e-06    0.015198    0.000000    0.000000    0.000000
    10        -0.276397303706849    1.609e-06    0.015198    0.000000    0.000000    0.000000
    11        -0.276397329031712    5.618e-07    0.015198    0.000000    0.000000    0.000000
    12        -0.276397321523587    2.080e-07    0.015198    0.000000    0.000000    0.000000
    13        -0.276397323828148    6.066e-08    0.015198    0.000000    0.000000    0.000000
    14        -0.276397325274239    1.571e-08    0.015198    0.000000    0.000000    0.000000
    15        -0.276397325359532    4.805e-09    0.015198    0.000000    0.000000    0.000000
    16        -0.276397325388122    1.413e-09    0.015198    0.000000    0.000000    0.000000
    17        -0.276397325406910    4.742e-10    0.015198    0.000000    0.000000    0.000000
    18        -0.276397325406041    1.192e-10    0.015198    0.000000    0.000000    0.000000
    19        -0.276397325406563    3.721e-11    0.015198    0.000000    0.000000    0.000000

    Iterations converged.

    Largest TIA Amplitudes:
              2  44        -0.0164946519
              2  45        -0.0139369487
              1   1         0.0086317893
              1   4        -0.0076578561
              3  73         0.0057749240
              2  54         0.0043046714
              3  69         0.0041957822
              1  15        -0.0037138516
              2  46         0.0036929689
              3  80         0.0036798580

    Largest Tia Amplitudes:
              2  44        -0.0164946519
              2  45        -0.0139369487
              1   1         0.0086317893
              1   4        -0.0076578561
              3  73         0.0057749240
              2  54         0.0043046714
              3  69         0.0041957822
              1  15        -0.0037138516
              2  46         0.0036929689
              3  80         0.0036798580

    Largest TIJAB Amplitudes:
      2   1  46   7        -0.0095720382
      3   1  66   6        -0.0091495661

      * MP2 total energy                      =  -76.326464121240747
      * CCSD total energy                     =  -76.330722674412485
      * CCSD(T) total energy                     =  -76.339813711975722
*** Psi4 exiting successfully. Buy a developer a beer!
