                               Psi4 1.3.2 release

  ==> Input File <==

--------------------------------------------------------------------------
memory 4 GB

molecule  {
0 1
O    0.000000000000    0.000000000000   -0.071961263524
H    0.000000000000   -0.764136353368    0.571038736476
H   -0.000000000000    0.764136353368    0.571038736476
}
set {
basis aug-cc-pvtz
reference uhf
e_convergence 10
scf_type pk
freeze_core true
}

set ccenergy {
e_convergence 10
r_convergence 10
}

e = energy('ccsd(t)')

print_out('Stephenergy {}'.format(e))

--------------------------------------------------------------------------

    Molecular point group: c2v

    Geometry (in Angstrom), charge = 0, multiplicity = 1:

       Center              X                  Y                   Z               Mass
    ------------   -----------------  -----------------  -----------------  -----------------
         O           -0.000000000000     0.000000000000    -0.071961263524    15.994914619570
         H            0.000000000000    -0.764136353368     0.571038736476     1.007825032230
         H           -0.000000000000     0.764136353368     0.571038736476     1.007825032230

  Charge       = 0
  Multiplicity = 1
  Basis Set: AUG-CC-PVTZ
    Blend: AUG-CC-PVTZ

    Orbital Energies [Eh]
    ---------------------

    Alpha Occupied:

       1A1   -20.576430     2A1    -1.336394     1B2    -0.687124
       3A1    -0.585973     1B1    -0.508578

    Alpha Virtual:

       4A1     0.028574     2B2     0.047812     5A1     0.134950
       2B1     0.161212     6A1     0.174729     3B2     0.184085
       4B2     0.221921     7A1     0.243844     1A2     0.266865
       3B1     0.293910     8A1     0.306406     5B2     0.364963
       9A1     0.429519     6B2     0.457509     7B2     0.594771
      10A1     0.659466    11A1     0.702553     2A2     0.727137
       4B1     0.732272    12A1     0.822921     5B1     0.847340
      13A1     0.901614     8B2     0.903792     6B1     0.916840
       3A2     0.919924     9B2     0.930281    14A1     0.949319
      15A1     1.006439    10B2     1.030779     7B1     1.074730
      11B2     1.097819     4A2     1.171054    16A1     1.176429
      12B2     1.276221     5A2     1.495028    17A1     1.506593
       8B1     1.550730    13B2     1.823020    18A1     1.829853
      14B2     1.927217    19A1     2.087563     9B1     2.260703
       6A2     2.306314    20A1     2.333658    21A1     2.414999
      10B1     2.415476    15B2     2.443792    22A1     2.499689
      16B2     2.695513    11B1     2.701580    23A1     2.752408
      17B2     2.770229     7A2     2.863570    18B2     3.605465
      24A1     3.648171     8A2     4.008324    12B1     4.038778
      25A1     4.090789    19B2     4.212161    13B1     4.215943
      26A1     4.346978     9A2     4.357241    14B1     4.381333
      20B2     4.496068    27A1     4.688677    21B2     4.754846
      10A2     5.036748    22B2     5.095942    28A1     5.175145
      23B2     5.194835    15B1     5.421772    29A1     5.546494
      30A1     6.175563    24B2     6.498242    16B1     6.695573
      31A1     6.872080    17B1     7.067854    25B2     7.145633
      11A2     7.225162    18B1     7.244305    12A2     7.344123
      32A1     7.350241    33A1     7.422177    34A1     7.797609
      26B2     7.850572    27B2     8.629969    35A1    14.612145

    Beta Occupied:

       1A1   -20.576430     2A1    -1.336394     1B2    -0.687124
       3A1    -0.585973     1B1    -0.508578

    Beta Virtual:

       4A1     0.028574     2B2     0.047812     5A1     0.134950
       2B1     0.161212     6A1     0.174729     3B2     0.184085
       4B2     0.221921     7A1     0.243844     1A2     0.266865
       3B1     0.293910     8A1     0.306406     5B2     0.364963
       9A1     0.429519     6B2     0.457509     7B2     0.594771
      10A1     0.659466    11A1     0.702553     2A2     0.727137
       4B1     0.732272    12A1     0.822921     5B1     0.847340
      13A1     0.901614     8B2     0.903792     6B1     0.916840
       3A2     0.919924     9B2     0.930281    14A1     0.949319
      15A1     1.006439    10B2     1.030779     7B1     1.074730
      11B2     1.097819     4A2     1.171054    16A1     1.176429
      12B2     1.276221     5A2     1.495028    17A1     1.506593
       8B1     1.550730    13B2     1.823020    18A1     1.829853
      14B2     1.927217    19A1     2.087563     9B1     2.260703
       6A2     2.306314    20A1     2.333658    21A1     2.414999
      10B1     2.415476    15B2     2.443792    22A1     2.499689
      16B2     2.695513    11B1     2.701580    23A1     2.752408
      17B2     2.770229     7A2     2.863570    18B2     3.605465
      24A1     3.648171     8A2     4.008324    12B1     4.038778
      25A1     4.090789    19B2     4.212161    13B1     4.215943
      26A1     4.346978     9A2     4.357241    14B1     4.381333
      20B2     4.496068    27A1     4.688677    21B2     4.754846
      10A2     5.036748    22B2     5.095942    28A1     5.175145
      23B2     5.194835    15B1     5.421772    29A1     5.546494
      30A1     6.175563    24B2     6.498242    16B1     6.695573
      31A1     6.872080    17B1     7.067854    25B2     7.145633
      11A2     7.225162    18B1     7.244305    12A2     7.344123
      32A1     7.350241    33A1     7.422177    34A1     7.797609
      26B2     7.850572    27B2     8.629969    35A1    14.612145

    Final Occupation by Irrep:
             A1    A2    B1    B2
    DOCC [     3,    0,    1,    1 ]
    SOCC [     0,    0,    0,    0 ]

  @UHF Final Energy:   -76.05428489199971

   => Energetics <=

    Nuclear Repulsion Energy =              8.8243203313374377
    One-Electron Energy =                -122.3682123882528572
    Two-Electron Energy =                  37.4896071649157108
    Total Energy =                        -76.0542848919997141

  UHF NO Occupations:
  HONO-2 :    1 B1 2.0000000
  HONO-1 :    2 A1 2.0000000
  HONO-0 :    3 A1 2.0000000
  LUNO+0 :    4 A1 0.0000000
  LUNO+1 :    2 B1 0.0000000
  LUNO+2 :    5 A1 0.0000000
  LUNO+3 :    6 A1 0.0000000

Computation Completed

Properties will be evaluated at   0.000000,   0.000000,   0.000000 [a0]

Properties computed using the SCF density matrix

  Nuclear Dipole Moment: [e a0]
     X:     0.0000      Y:     0.0000      Z:     1.0703

  Electronic Dipole Moment: [e a0]
     X:     0.0000      Y:     0.0000      Z:    -0.2468

  Dipole Moment: [e a0]
     X:     0.0000      Y:     0.0000      Z:     0.8235     Total:     0.8235

  Dipole Moment: [D]
     X:     0.0000      Y:     0.0000      Z:     2.0931     Total:     2.0931

*** tstop() called on c5-20.compute.lan at Mon Mar  8 09:39:51 2021
Module time:
	user time   =      10.82 seconds =       0.18 minutes
	system time =       0.32 seconds =       0.01 minutes
	total time  =          3 seconds =       0.05 minutes
Total time:
	user time   =      10.82 seconds =       0.18 minutes
	system time =       0.32 seconds =       0.01 minutes
	total time  =          3 seconds =       0.05 minutes
 MINTS: Wrapper to libmints.
   by Justin Turney

   Calculation information:
      Number of threads:                12
      Number of atoms:                   3
      Number of AO shells:              32
      Number of SO shells:              23
      Number of primitives:             52
      Number of atomic orbitals:       105
      Number of basis functions:        92

      Number of irreps:                  4
      Integral cutoff                 0.00e+00
      Number of functions per irrep: [  35   12   18   27 ]

 OEINTS: Overlap, kinetic, potential, dipole, and quadrupole integrals
         stored in file 35.

      Computing two-electron integrals...done
      Computed 2218118 non-zero two-electron integrals.
        Stored in file 33.

*** tstart() called on c5-20.compute.lan
*** at Mon Mar  8 09:39:52 2021

	Wfn Parameters:
	--------------------
	Wavefunction         = CCSD_T
	Number of irreps     = 4
	Number of MOs        = 92
	Number of active MOs = 91
	AO-Basis             = NONE
	Semicanonical        = false
	Reference            = UHF
	Print Level          = 1

	IRREP	# MOs	# FZDC	# DOCC	# SOCC	# VIRT	# FZVR
	-----	-----	------	------	------	------	------
	 A1	   35	    1	    2	    0	    32	    0
	 A2	   12	    0	    0	    0	    12	    0
	 B1	   18	    0	    1	    0	    17	    0
	 B2	   27	    0	    1	    0	    26	    0
	Transforming integrals...
	IWL integrals will be deleted.
	(OO|OO)...
	Presorting SO-basis two-electron integrals.
	Sorting File: SO Ints (nn|nn) nbuckets = 1
	Transforming the one-electron integrals and constructing Fock matrices
	Starting AA/AB first half-transformation.
	Sorting AA/AB half-transformed integrals.
	Starting BB first half-transformation.
	Sorting BB half-transformed integrals.
	First half integral transformation complete.
	Starting AA second half-transformation.
	Starting AB second half-transformation.
	Starting BB second half-transformation.
	Two-electron integral transformation complete.
	(OO|OV)...
	Starting AA second half-transformation.
	Starting AB second half-transformation.
	Starting BB second half-transformation.
	Two-electron integral transformation complete.
	(OO|VV)...
	Starting AA second half-transformation.
	Starting AB second half-transformation.
	Starting BB second half-transformation.
	Two-electron integral transformation complete.
	(OV|OO)...
	Starting AA/AB first half-transformation.
	Sorting AA/AB half-transformed integrals.
	Starting BB first half-transformation.
	Sorting BB half-transformed integrals.
	First half integral transformation complete.
	Starting AA second half-transformation.
	Starting AB second half-transformation.
	Starting BB second half-transformation.
	Two-electron integral transformation complete.
	(OV|OV)...
	Starting AA second half-transformation.
	Starting AB second half-transformation.
	Starting BB second half-transformation.
	Two-electron integral transformation complete.
	(OV|VV)...
	Starting AA second half-transformation.
	Starting AB second half-transformation.
	Starting BB second half-transformation.
	Two-electron integral transformation complete.
	(VV|OO)...
	Starting AA/AB first half-transformation.
	Sorting AA/AB half-transformed integrals.
	Starting BB first half-transformation.
	Sorting BB half-transformed integrals.
	First half integral transformation complete.
	Starting AA second half-transformation.
	Starting AB second half-transformation.
	Starting BB second half-transformation.
	Two-electron integral transformation complete.
	(VV|OV)...
	Starting AA second half-transformation.
	Starting AB second half-transformation.
	Starting BB second half-transformation.
	Two-electron integral transformation complete.
	(VV|VV)...
	Starting AA second half-transformation.
	Starting AB second half-transformation.
	Starting BB second half-transformation.
	Two-electron integral transformation complete.
	Frozen core energy     =    -61.22507189077274

	Size of irrep 0 of <AB|CD> integrals:      1.047 (MW) /      8.372 (MB)
	Size of irrep 1 of <AB|CD> integrals:      0.682 (MW) /      5.458 (MB)
	Size of irrep 2 of <AB|CD> integrals:      0.733 (MW) /      5.862 (MB)
	Size of irrep 3 of <AB|CD> integrals:      1.073 (MW) /      8.586 (MB)
	Total:                                     3.535 (MW) /     28.279 (MB)

	Size of irrep 0 of <ab|cd> integrals:      1.047 (MW) /      8.372 (MB)
	Size of irrep 1 of <ab|cd> integrals:      0.682 (MW) /      5.458 (MB)
	Size of irrep 2 of <ab|cd> integrals:      0.733 (MW) /      5.862 (MB)
	Size of irrep 3 of <ab|cd> integrals:      1.073 (MW) /      8.586 (MB)
	Total:                                     3.535 (MW) /     28.279 (MB)

	Size of irrep 0 of <Ab|Cd> integrals:      4.550 (MW) /     36.398 (MB)
	Size of irrep 1 of <Ab|Cd> integrals:      2.729 (MW) /     21.833 (MB)
	Size of irrep 2 of <Ab|Cd> integrals:      2.931 (MW) /     23.448 (MB)
	Size of irrep 3 of <Ab|Cd> integrals:      4.293 (MW) /     34.345 (MB)
	Total:                                    14.503 (MW) /    116.023 (MB)

	Size of irrep 0 of <IA|BC> integrals:      0.228 (MW) /      1.826 (MB)
	Size of irrep 1 of <IA|BC> integrals:      0.111 (MW) /      0.885 (MB)
	Size of irrep 2 of <IA|BC> integrals:      0.134 (MW) /      1.068 (MB)
	Size of irrep 3 of <IA|BC> integrals:      0.199 (MW) /      1.591 (MB)
	Total:                                     0.671 (MW) /      5.371 (MB)

	Size of irrep 0 of <ia|bc> integrals:      0.228 (MW) /      1.826 (MB)
	Size of irrep 1 of <ia|bc> integrals:      0.111 (MW) /      0.885 (MB)
	Size of irrep 2 of <ia|bc> integrals:      0.134 (MW) /      1.068 (MB)
	Size of irrep 3 of <ia|bc> integrals:      0.199 (MW) /      1.591 (MB)
	Total:                                     0.671 (MW) /      5.371 (MB)

	Size of irrep 0 of <Ia|Bc> integrals:      0.228 (MW) /      1.826 (MB)
	Size of irrep 1 of <Ia|Bc> integrals:      0.111 (MW) /      0.885 (MB)
	Size of irrep 2 of <Ia|Bc> integrals:      0.134 (MW) /      1.068 (MB)
	Size of irrep 3 of <Ia|Bc> integrals:      0.199 (MW) /      1.591 (MB)
	Total:                                     0.671 (MW) /      5.371 (MB)

	Size of irrep 0 of <iA|bC> integrals:      0.228 (MW) /      1.826 (MB)
	Size of irrep 1 of <iA|bC> integrals:      0.111 (MW) /      0.885 (MB)
	Size of irrep 2 of <iA|bC> integrals:      0.134 (MW) /      1.068 (MB)
	Size of irrep 3 of <iA|bC> integrals:      0.199 (MW) /      1.591 (MB)
	Total:                                     0.671 (MW) /      5.371 (MB)

	Size of irrep 0 of tIjAb amplitudes:       0.013 (MW) /      0.102 (MB)
	Size of irrep 1 of tIjAb amplitudes:       0.003 (MW) /      0.026 (MB)
	Size of irrep 2 of tIjAb amplitudes:       0.007 (MW) /      0.055 (MB)
	Size of irrep 3 of tIjAb amplitudes:       0.008 (MW) /      0.066 (MB)
	Total:                                     0.031 (MW) /      0.250 (MB)

	Nuclear Rep. energy          =      8.82432033133744
	SCF energy                   =    -76.05428489199971
	One-electron energy          =    -41.07092752446621
	Two-electron (AA) energy     =      3.38588255661112
	Two-electron (BB) energy     =      3.38588255661110
	Two-electron (AB) energy     =     10.64562907867948
	Two-electron energy          =     17.41739419190169
	Reference energy             =    -76.05428489199983

*** tstop() called on c5-20.compute.lan at Mon Mar  8 09:39:57 2021
Module time:
	user time   =       2.33 seconds =       0.04 minutes
	system time =       2.45 seconds =       0.04 minutes
	total time  =          5 seconds =       0.08 minutes
Total time:
	user time   =      14.64 seconds =       0.24 minutes
	system time =       2.88 seconds =       0.05 minutes
	total time  =          9 seconds =       0.15 minutes
            **************************
            *                        *
            *        CCENERGY        *
            *                        *
            **************************

    Nuclear Rep. energy (wfn)     =    8.824320331337438
    SCF energy          (wfn)     =  -76.054284891999714
    Reference energy    (file100) =  -76.054284891999828

    Input parameters:
    -----------------
    Wave function   =     CCSD_T
    Reference wfn   =     UHF
    Brueckner       =     No
    Memory (Mbytes) =     4000.0
    Maxiter         =     50
    R_Convergence   =     1.0e-10
    E_Convergence   =     1.0e-10
    Restart         =     Yes
    DIIS            =     Yes
    AO Basis        =     NONE
    ABCD            =     NEW
    Cache Level     =     2
    Cache Type      =     LRU
    Print Level     =     1
    Num. of threads =     12
    # Amps to Print =     10
    Print MP2 Amps? =     No
    Analyze T2 Amps =     No
    Print Pair Ener =     No
    Local CC        =     No
    SCS-MP2         =     False
    SCSN-MP2        =     False
    SCS-CCSD        =     False

MP2 correlation energy -0.2721593866233529
                Solving CC Amplitude Equations
                ------------------------------
  Iter             Energy              RMS        T1Diag      D1Diag    New D1Diag    D2Diag
  ----     ---------------------    ---------   ----------  ----------  ----------   --------
     0        -0.272159386623353    0.000e+00    0.000000    0.000000    0.000000    0.000000
     1        -0.269634764261089    5.080e-02    0.012868    0.000000    0.000000    0.000000
     2        -0.275172953291402    1.440e-02    0.012603    0.000000    0.000000    0.000000
     3        -0.276540943051343    6.814e-03    0.014658    0.000000    0.000000    0.000000
     4        -0.276429558256222    1.391e-03    0.015010    0.000000    0.000000    0.000000
     5        -0.276413652681132    5.137e-04    0.015157    0.000000    0.000000    0.000000
     6        -0.276414522683737    1.291e-04    0.015190    0.000000    0.000000    0.000000
     7        -0.276413092948437    4.484e-05    0.015196    0.000000    0.000000    0.000000
     8        -0.276413181802324    1.265e-05    0.015199    0.000000    0.000000    0.000000
     9        -0.276413223397532    3.951e-06    0.015199    0.000000    0.000000    0.000000
    10        -0.276413079190987    1.590e-06    0.015199    0.000000    0.000000    0.000000
    11        -0.276413103852334    5.547e-07    0.015199    0.000000    0.000000    0.000000
    12        -0.276413096336509    2.065e-07    0.015199    0.000000    0.000000    0.000000
    13        -0.276413098607912    6.038e-08    0.015199    0.000000    0.000000    0.000000
    14        -0.276413100043713    1.567e-08    0.015199    0.000000    0.000000    0.000000
    15        -0.276413100128620    4.777e-09    0.015199    0.000000    0.000000    0.000000
    16        -0.276413100157203    1.405e-09    0.015199    0.000000    0.000000    0.000000
    17        -0.276413100176017    4.705e-10    0.015199    0.000000    0.000000    0.000000
    18        -0.276413100175199    1.184e-10    0.015199    0.000000    0.000000    0.000000
    19        -0.276413100175742    3.690e-11    0.015199    0.000000    0.000000    0.000000

    Iterations converged.

    Largest TIA Amplitudes:
              2  44        -0.0164917290
              2  45        -0.0139472043
              1   1         0.0086136771
              1   4        -0.0076289952
              3  73         0.0057554822
              2  54         0.0043038064
              3  69         0.0041888894
              2  46         0.0037325457
              1  15        -0.0037113804
              3  80         0.0036769033

    Largest Tia Amplitudes:
              2  44        -0.0164917290
              2  45        -0.0139472043
              1   1         0.0086136771
              1   4        -0.0076289952
              3  73         0.0057554822
              2  54         0.0043038064
              3  69         0.0041888894
              2  46         0.0037325457
              1  15        -0.0037113804
              3  80         0.0036769033

    Largest TIJAB Amplitudes:
      2   1  46   7        -0.0095800217
      3   1  66   6        -0.0091621844

      * MP2 total energy                      =  -76.326444278623185
      * CCSD total energy                     =  -76.330697992175573
      * CCSD(T) total energy                     =  -76.339790442921085
*** Psi4 exiting successfully. Buy a developer a beer!
