                               Psi4 1.3.2 release

  ==> Input File <==

--------------------------------------------------------------------------
memory 4 GB

molecule  {
0 3
O    0.000000000000    0.000000000000    1.268861218882
H    0.000000000000   -0.761823220732    1.857959265782
H   -0.000000000000    0.761823220732    1.857959265782
O    0.000000000000    0.000000000000   -1.502997868118
}
set {
basis aug-cc-pvtz
reference uhf
e_convergence 10
scf_type pk
freeze_core true
}

set ccenergy {
e_convergence 10
r_convergence 10
}

e = energy('ccsd(t)')

print_out('Stephenergy {}'.format(e))

--------------------------------------------------------------------------

    Molecular point group: c2v

    Geometry (in Angstrom), charge = 0, multiplicity = 3:

       Center              X                  Y                   Z               Mass
    ------------   -----------------  -----------------  -----------------  -----------------
         O           -0.000000000000     0.000000000000     1.268861218882    15.994914619570
         H            0.000000000000    -0.761823220732     1.857959265782     1.007825032230
         H           -0.000000000000     0.761823220732     1.857959265782     1.007825032230
         O           -0.000000000000     0.000000000000    -1.502997868118    15.994914619570

  Charge       = 0
  Multiplicity = 3
  Basis Set: AUG-CC-PVTZ
    Blend: AUG-CC-PVTZ

    Orbital Energies [Eh]
    ---------------------

    Alpha Occupied:

       1A1   -20.684465     2A1   -20.571377     3A1    -1.393891
       4A1    -1.354452     1B2    -0.718290     5A1    -0.688156
       1B1    -0.685193     2B2    -0.586203     6A1    -0.585843
       2B1    -0.513815

    Alpha Virtual:

       7A1     0.029548     3B2     0.047654     8A1     0.118578
       3B1     0.154100     9A1     0.159451     4B2     0.180208
       5B2     0.186961     4B1     0.192775    10A1     0.197918
       1A2     0.263631     6B2     0.264039    11A1     0.264793
      12A1     0.314410     5B1     0.326875    13A1     0.376089
       7B2     0.380244    14A1     0.449561     8B2     0.464062
       9B2     0.600080     6B1     0.643682    15A1     0.647320
       2A2     0.658174    16A1     0.666464    17A1     0.696644
       3A2     0.721595    10B2     0.722652     7B1     0.767779
      18A1     0.792916    19A1     0.818643     8B1     0.837472
      20A1     0.860387     9B1     0.901334    11B2     0.918629
       4A2     0.924490    12B2     0.945985    13B2     0.979512
      21A1     0.989942    10B1     1.013099    22A1     1.046055
      14B2     1.050926    11B1     1.122046     5A2     1.176192
      23A1     1.191030    15B2     1.199061    16B2     1.327665
      24A1     1.336212    25A1     1.444918     6A2     1.506851
      12B1     1.593740    26A1     1.667752    27A1     1.813014
      17B2     1.819354    18B2     1.975556    28A1     2.040770
      13B1     2.047799    19B2     2.054095     7A2     2.056940
      14B1     2.058920    29A1     2.078418    30A1     2.114897
       8A2     2.118779    20B2     2.135478    31A1     2.139705
      15B1     2.145293    32A1     2.251896    21B2     2.267753
      16B1     2.303398     9A2     2.311496    17B1     2.434080
      33A1     2.470899    22B2     2.482425    34A1     2.485849
      35A1     2.696636    18B1     2.716460    23B2     2.722152
      36A1     2.838954    24B2     2.863256    10A2     2.879244
      25B2     3.688512    37A1     3.752398    11A2     4.011251
      19B1     4.078042    20B1     4.099193    38A1     4.141413
      26B2     4.183035    27B2     4.278370    21B1     4.290695
      39A1     4.351090    12A2     4.381093    40A1     4.429412
      22B1     4.449529    28B2     4.512873    41A1     4.786144
      29B2     4.834086    30B2     5.136445    13A2     5.140754
      31B2     5.247191    42A1     5.333649    23B1     5.510681
      43A1     5.683860    44A1     6.194601    24B1     6.389059
      45A1     6.409143    14A2     6.410251    32B2     6.423677
      25B1     6.435555    33B2     6.486436    46A1     6.535283
      34B2     6.582685    26B1     6.715958    27B1     6.902501
      47A1     6.905123    15A2     6.924578    48A1     6.937869
      35B2     6.985807    49A1     7.045926    28B1     7.133541
      29B1     7.276744    16A2     7.302071    36B2     7.307997
      17A2     7.352175    50A1     7.435634    51A1     7.538497
      52A1     7.908652    37B2     7.909141    38B2     8.795575
      53A1     8.862996    54A1    15.726160

    Beta Occupied:

       1A1   -20.605598     2A1   -20.570910     3A1    -1.353755
       4A1    -1.051086     1B2    -0.717958     5A1    -0.587575
       1B1    -0.513148     2B2    -0.495620

    Beta Virtual:

       6A1     0.029387     3B2     0.047735     2B1     0.086549
       7A1     0.091938     8A1     0.141015     9A1     0.166983
       3B1     0.170678     4B2     0.180833     5B2     0.190556
      10A1     0.225428     4B1     0.253314     1A2     0.263633
       6B2     0.264485    11A1     0.288422    12A1     0.316818
       5B1     0.328171     7B2     0.380417    13A1     0.386446
      14A1     0.450643     8B2     0.464259     9B2     0.601700
      15A1     0.660118     6B1     0.667485     2A2     0.672586
      16A1     0.673770    17A1     0.713845     3A2     0.722065
      10B2     0.734852     7B1     0.779074    18A1     0.806405
       8B1     0.846698    19A1     0.850018     4A2     0.924880
      20A1     0.928156    11B2     0.936337    12B2     0.953029
      13B2     0.983311     9B1     0.986885    21A1     0.996939
      14B2     1.052043    22A1     1.052368    10B1     1.060525
      11B1     1.138213     5A2     1.176387    23A1     1.192503
      15B2     1.201794    16B2     1.330059    24A1     1.392883
      25A1     1.484296     6A2     1.507273    12B1     1.595713
      26A1     1.697799    27A1     1.818061    17B2     1.819680
      18B2     1.976939    28A1     2.070097    13B1     2.070863
      19B2     2.071524     7A2     2.081583    29A1     2.098335
      14B1     2.100235    30A1     2.155266    20B2     2.181324
       8A2     2.201993    31A1     2.207875    15B1     2.258309
      32A1     2.308843     9A2     2.311629    16B1     2.319153
      21B2     2.319420    17B1     2.442114    33A1     2.482010
      22B2     2.485317    34A1     2.516380    35A1     2.703763
      18B1     2.718155    23B2     2.723050    36A1     2.851270
      24B2     2.863431    10A2     2.879278    25B2     3.689392
      37A1     3.752534    11A2     4.011279    19B1     4.080217
      38A1     4.173567    26B2     4.217844    20B1     4.259706
      27B2     4.290029    21B1     4.295363    12A2     4.381199
      39A1     4.427450    22B1     4.454722    40A1     4.468502
      28B2     4.512955    41A1     4.797090    29B2     4.834243
      30B2     5.136625    13A2     5.140829    31B2     5.247604
      42A1     5.334282    23B1     5.510793    43A1     5.688413
      44A1     6.196191    24B1     6.485646    14A2     6.487080
      32B2     6.487814    45A1     6.493302    25B1     6.499220
      33B2     6.522317    46A1     6.606731    34B2     6.610376
      26B1     6.722974    47A1     6.952570    15A2     7.038130
      48A1     7.042029    27B1     7.084996    35B2     7.097666
      28B1     7.133959    49A1     7.173786    29B1     7.280912
      16A2     7.302332    36B2     7.308184    17A2     7.352600
      50A1     7.438375    51A1     7.539606    52A1     7.909218
      37B2     7.909493    38B2     8.795948    53A1     8.942390
      54A1    15.726481

    Final Occupation by Irrep:
             A1    A2    B1    B2
    DOCC [     5,    0,    1,    2 ]
    SOCC [     1,    0,    1,    0 ]

  @UHF Final Energy:  -150.87340741627247

   => Energetics <=

    Nuclear Repulsion Energy =             23.8143811049631964
    One-Electron Energy =                -255.6982445480714432
    Two-Electron Energy =                  81.0104560268357687
    Total Energy =                       -150.8734074162724710

  UHF NO Occupations:
  HONO-2 :    5 A1 1.9970491
  HONO-1 :    2 B1 1.0000000
  HONO-0 :    6 A1 1.0000000
  LUNO+0 :    7 A1 0.0029509
  LUNO+1 :    3 B2 0.0017955
  LUNO+2 :    8 A1 0.0000220
  LUNO+3 :    9 A1 0.0000024

Computation Completed

Properties will be evaluated at   0.000000,   0.000000,   0.000000 [a0]

Properties computed using the SCF density matrix

  Nuclear Dipole Moment: [e a0]
     X:    -0.0000      Y:     0.0000      Z:     3.4824

  Electronic Dipole Moment: [e a0]
     X:     0.0000      Y:     0.0000      Z:    -2.6465

  Dipole Moment: [e a0]
     X:    -0.0000      Y:     0.0000      Z:     0.8359     Total:     0.8359

  Dipole Moment: [D]
     X:    -0.0000      Y:     0.0000      Z:     2.1247     Total:     2.1247

*** tstop() called on c4-4.compute.lan at Mon Mar  8 17:36:49 2021
Module time:
	user time   =      50.01 seconds =       0.83 minutes
	system time =       1.37 seconds =       0.02 minutes
	total time  =          6 seconds =       0.10 minutes
Total time:
	user time   =      50.01 seconds =       0.83 minutes
	system time =       1.37 seconds =       0.02 minutes
	total time  =          6 seconds =       0.10 minutes
 MINTS: Wrapper to libmints.
   by Justin Turney

   Calculation information:
      Number of threads:                12
      Number of atoms:                   4
      Number of AO shells:              46
      Number of SO shells:              37
      Number of primitives:             82
      Number of atomic orbitals:       160
      Number of basis functions:       138

      Number of irreps:                  4
      Integral cutoff                 0.00e+00
      Number of functions per irrep: [  54   17   29   38 ]

 OEINTS: Overlap, kinetic, potential, dipole, and quadrupole integrals
         stored in file 35.

      Computing two-electron integrals...done
      Computed 11520600 non-zero two-electron integrals.
        Stored in file 33.

*** tstart() called on c4-4.compute.lan
*** at Mon Mar  8 17:36:51 2021

	Wfn Parameters:
	--------------------
	Wavefunction         = CCSD_T
	Number of irreps     = 4
	Number of MOs        = 138
	Number of active MOs = 136
	AO-Basis             = NONE
	Semicanonical        = false
	Reference            = UHF
	Print Level          = 1

	IRREP	# MOs	# FZDC	# DOCC	# SOCC	# VIRT	# FZVR
	-----	-----	------	------	------	------	------
	 A1	   54	    2	    3	    1	    48	    0
	 A2	   17	    0	    0	    0	    17	    0
	 B1	   29	    0	    1	    1	    27	    0
	 B2	   38	    0	    2	    0	    36	    0
	Transforming integrals...
	IWL integrals will be deleted.
	(OO|OO)...
	Presorting SO-basis two-electron integrals.
	Sorting File: SO Ints (nn|nn) nbuckets = 1
	Transforming the one-electron integrals and constructing Fock matrices
	Starting AA/AB first half-transformation.
	Sorting AA/AB half-transformed integrals.
	Starting BB first half-transformation.
	Sorting BB half-transformed integrals.
	First half integral transformation complete.
	Starting AA second half-transformation.
	Starting AB second half-transformation.
	Starting BB second half-transformation.
	Two-electron integral transformation complete.
	(OO|OV)...
	Starting AA second half-transformation.
	Starting AB second half-transformation.
	Starting BB second half-transformation.
	Two-electron integral transformation complete.
	(OO|VV)...
	Starting AA second half-transformation.
	Starting AB second half-transformation.
	Starting BB second half-transformation.
	Two-electron integral transformation complete.
	(OV|OO)...
	Starting AA/AB first half-transformation.
	Sorting AA/AB half-transformed integrals.
	Starting BB first half-transformation.
	Sorting BB half-transformed integrals.
	First half integral transformation complete.
	Starting AA second half-transformation.
	Starting AB second half-transformation.
	Starting BB second half-transformation.
	Two-electron integral transformation complete.
	(OV|OV)...
	Starting AA second half-transformation.
	Starting AB second half-transformation.
	Starting BB second half-transformation.
	Two-electron integral transformation complete.
	(OV|VV)...
	Starting AA second half-transformation.
	Starting AB second half-transformation.
	Starting BB second half-transformation.
	Two-electron integral transformation complete.
	(VV|OO)...
	Starting AA/AB first half-transformation.
	Sorting AA/AB half-transformed integrals.
	Starting BB first half-transformation.
	Sorting BB half-transformed integrals.
	First half integral transformation complete.
	Starting AA second half-transformation.
	Starting AB second half-transformation.
	Starting BB second half-transformation.
	Two-electron integral transformation complete.
	(VV|OV)...
	Starting AA second half-transformation.
	Starting AB second half-transformation.
	Starting BB second half-transformation.
	Two-electron integral transformation complete.
	(VV|VV)...
	Starting AA second half-transformation.
	Starting AB second half-transformation.
	Starting BB second half-transformation.
	Two-electron integral transformation complete.
	Frozen core energy     =   -126.36846241320899

	Size of irrep 0 of <AB|CD> integrals:      5.040 (MW) /     40.320 (MB)
	Size of irrep 1 of <AB|CD> integrals:      3.197 (MW) /     25.576 (MB)
	Size of irrep 2 of <AB|CD> integrals:      3.640 (MW) /     29.124 (MB)
	Size of irrep 3 of <AB|CD> integrals:      4.783 (MW) /     38.264 (MB)
	Total:                                    16.660 (MW) /    133.283 (MB)

	Size of irrep 0 of <ab|cd> integrals:      5.382 (MW) /     43.059 (MB)
	Size of irrep 1 of <ab|cd> integrals:      3.389 (MW) /     27.114 (MB)
	Size of irrep 2 of <ab|cd> integrals:      3.936 (MW) /     31.490 (MB)
	Size of irrep 3 of <ab|cd> integrals:      5.018 (MW) /     40.141 (MB)
	Total:                                    17.726 (MW) /    141.804 (MB)

	Size of irrep 0 of <Ab|Cd> integrals:     22.024 (MW) /    176.194 (MB)
	Size of irrep 1 of <Ab|Cd> integrals:     13.170 (MW) /    105.357 (MB)
	Size of irrep 2 of <Ab|Cd> integrals:     15.140 (MW) /    121.119 (MB)
	Size of irrep 3 of <Ab|Cd> integrals:     19.598 (MW) /    156.787 (MB)
	Total:                                    69.932 (MW) /    559.457 (MB)

	Size of irrep 0 of <IA|BC> integrals:      1.469 (MW) /     11.748 (MB)
	Size of irrep 1 of <IA|BC> integrals:      0.694 (MW) /      5.550 (MB)
	Size of irrep 2 of <IA|BC> integrals:      0.908 (MW) /      7.266 (MB)
	Size of irrep 3 of <IA|BC> integrals:      1.198 (MW) /      9.588 (MB)
	Total:                                     4.269 (MW) /     34.152 (MB)

	Size of irrep 0 of <ia|bc> integrals:      1.178 (MW) /      9.426 (MB)
	Size of irrep 1 of <ia|bc> integrals:      0.527 (MW) /      4.212 (MB)
	Size of irrep 2 of <ia|bc> integrals:      0.663 (MW) /      5.301 (MB)
	Size of irrep 3 of <ia|bc> integrals:      0.999 (MW) /      7.992 (MB)
	Total:                                     3.366 (MW) /     26.931 (MB)

	Size of irrep 0 of <Ia|Bc> integrals:      1.521 (MW) /     12.164 (MB)
	Size of irrep 1 of <Ia|Bc> integrals:      0.711 (MW) /      5.690 (MB)
	Size of irrep 2 of <Ia|Bc> integrals:      0.949 (MW) /      7.595 (MB)
	Size of irrep 3 of <Ia|Bc> integrals:      1.222 (MW) /      9.775 (MB)
	Total:                                     4.403 (MW) /     35.225 (MB)

	Size of irrep 0 of <iA|bC> integrals:      1.140 (MW) /      9.123 (MB)
	Size of irrep 1 of <iA|bC> integrals:      0.512 (MW) /      4.094 (MB)
	Size of irrep 2 of <iA|bC> integrals:      0.634 (MW) /      5.074 (MB)
	Size of irrep 3 of <iA|bC> integrals:      0.978 (MW) /      7.827 (MB)
	Total:                                     3.265 (MW) /     26.118 (MB)

	Size of irrep 0 of tIjAb amplitudes:       0.084 (MW) /      0.676 (MB)
	Size of irrep 1 of tIjAb amplitudes:       0.022 (MW) /      0.174 (MB)
	Size of irrep 2 of tIjAb amplitudes:       0.039 (MW) /      0.311 (MB)
	Size of irrep 3 of tIjAb amplitudes:       0.062 (MW) /      0.496 (MB)
	Total:                                     0.207 (MW) /      1.657 (MB)

	Nuclear Rep. energy          =     23.81438110496320
	SCF energy                   =   -150.87340741627247
	One-electron energy          =    -85.39366868522423
	Two-electron (AA) energy     =     10.36311626660706
	Two-electron (BB) energy     =      5.46578492481506
	Two-electron (AB) energy     =     21.24544138577443
	Two-electron energy          =     37.07434257719656
	Reference energy             =   -150.87340741627347

*** tstop() called on c4-4.compute.lan at Mon Mar  8 17:37:22 2021
Module time:
	user time   =      69.29 seconds =       1.15 minutes
	system time =      14.49 seconds =       0.24 minutes
	total time  =         31 seconds =       0.52 minutes
Total time:
	user time   =     124.76 seconds =       2.08 minutes
	system time =      16.26 seconds =       0.27 minutes
	total time  =         39 seconds =       0.65 minutes
            **************************
            *                        *
            *        CCENERGY        *
            *                        *
            **************************

    Nuclear Rep. energy (wfn)     =   23.814381104963196
    SCF energy          (wfn)     = -150.873407416272471
    Reference energy    (file100) = -150.873407416273466

    Input parameters:
    -----------------
    Wave function   =     CCSD_T
    Reference wfn   =     UHF
    Brueckner       =     No
    Memory (Mbytes) =     4000.0
    Maxiter         =     50
    R_Convergence   =     1.0e-10
    E_Convergence   =     1.0e-10
    Restart         =     Yes
    DIIS            =     Yes
    AO Basis        =     NONE
    ABCD            =     NEW
    Cache Level     =     2
    Cache Type      =     LRU
    Print Level     =     1
    Num. of threads =     12
    # Amps to Print =     10
    Print MP2 Amps? =     No
    Analyze T2 Amps =     No
    Print Pair Ener =     No
    Local CC        =     No
    SCS-MP2         =     False
    SCSN-MP2        =     False
    SCS-CCSD        =     False

MP2 correlation energy -0.4163825959303712
                Solving CC Amplitude Equations
                ------------------------------
  Iter             Energy              RMS        T1Diag      D1Diag    New D1Diag    D2Diag
  ----     ---------------------    ---------   ----------  ----------  ----------   --------
     0        -0.416382595930371    0.000e+00    0.000000    0.000000    0.000000    0.000000
     1        -0.427132328748311    5.707e-02    0.010598    0.000000    0.000000    0.000000
     2        -0.435242578107577    1.706e-02    0.011090    0.000000    0.000000    0.000000
     3        -0.437400440838404    8.794e-03    0.013017    0.000000    0.000000    0.000000
     4        -0.437273953613830    2.685e-03    0.013427    0.000000    0.000000    0.000000
     5        -0.437264425654178    1.397e-03    0.013621    0.000000    0.000000    0.000000
     6        -0.437293513024206    5.305e-04    0.013648    0.000000    0.000000    0.000000
     7        -0.437296495571438    2.153e-04    0.013642    0.000000    0.000000    0.000000
     8        -0.437297438466604    6.691e-05    0.013637    0.000000    0.000000    0.000000
     9        -0.437298128306658    2.393e-05    0.013636    0.000000    0.000000    0.000000
    10        -0.437297224536649    9.239e-06    0.013636    0.000000    0.000000    0.000000
    11        -0.437297390586453    4.013e-06    0.013636    0.000000    0.000000    0.000000
    12        -0.437297350503996    1.451e-06    0.013636    0.000000    0.000000    0.000000
    13        -0.437297358532777    7.342e-07    0.013636    0.000000    0.000000    0.000000
    14        -0.437297381185815    3.070e-07    0.013636    0.000000    0.000000    0.000000
    15        -0.437297382841693    1.120e-07    0.013636    0.000000    0.000000    0.000000
    16        -0.437297383414905    5.041e-08    0.013636    0.000000    0.000000    0.000000
    17        -0.437297383989335    1.940e-08    0.013636    0.000000    0.000000    0.000000
    18        -0.437297383842043    1.014e-08    0.013636    0.000000    0.000000    0.000000

      * MP2 total energy                      = -151.289790012203838
      * CCSD total energy                     = -151.310704799864737
      * CCSD(T) total energy                     = -151.323012354940857
*** Psi4 exiting successfully. Buy a developer a beer!
