                               Psi4 1.3.2 release

  ==> Input File <==

--------------------------------------------------------------------------
memory 4 GB

molecule  {
0 1
O    0.000000000000    0.000000000000   -0.066350222077
H    0.000000000000   -0.758684214200    0.526513086682
H   -0.000000000000    0.758684214200    0.526513086682
}
set {
basis aug-cc-pvtz
reference uhf
e_convergence 10
scf_type pk
freeze_core true
}

set ccenergy {
e_convergence 10
r_convergence 10
}

e = energy('ccsd(t)')

print_out('Stephenergy {}'.format(e))

--------------------------------------------------------------------------

    Molecular point group: c2v

    Geometry (in Angstrom), charge = 0, multiplicity = 1:

       Center              X                  Y                   Z               Mass
    ------------   -----------------  -----------------  -----------------  -----------------
         O            0.000000000000     0.000000000000    -0.066350222077    15.994914619570
         H            0.000000000000    -0.758684214200     0.526513086682     1.007825032230
         H           -0.000000000000     0.758684214200     0.526513086682     1.007825032230

  Charge       = 0
  Multiplicity = 1
  Basis Set: AUG-CC-PVTZ
    Blend: AUG-CC-PVTZ

    Orbital Energies [Eh]
    ---------------------

    Alpha Occupied:

       1A1   -20.568415     2A1    -1.351090     1B2    -0.713759
       3A1    -0.584896     1B1    -0.510055

    Alpha Virtual:

       4A1     0.029340     2B2     0.047695     5A1     0.135864
       2B1     0.158878     6A1     0.175139     3B2     0.183115
       4B2     0.226941     7A1     0.244867     1A2     0.265426
       3B1     0.299806     8A1     0.310000     5B2     0.365746
       9A1     0.437010     6B2     0.465735     7B2     0.599016
      10A1     0.658436    11A1     0.707792     2A2     0.722765
       4B1     0.731705    12A1     0.830138     5B1     0.846275
      13A1     0.892531     8B2     0.912150     6B1     0.918264
       3A2     0.922236     9B2     0.930727    14A1     0.960966
      15A1     1.020181    10B2     1.042516     7B1     1.082222
      11B2     1.107964     4A2     1.175888    16A1     1.181456
      12B2     1.261582     5A2     1.509463    17A1     1.534415
       8B1     1.581331    18A1     1.806226    13B2     1.820003
      14B2     1.981525    19A1     2.115898     9B1     2.262493
       6A2     2.315201    20A1     2.327183    21A1     2.417909
      10B1     2.420311    15B2     2.443178    22A1     2.479798
      16B2     2.678039    11B1     2.698263    23A1     2.769391
      17B2     2.813841     7A2     2.883003    18B2     3.649948
      24A1     3.737744     8A2     4.016676    12B1     4.080634
      25A1     4.160991    19B2     4.245036    13B1     4.284641
      26A1     4.373315     9A2     4.376203    14B1     4.403193
      20B2     4.516359    27A1     4.722775    21B2     4.838376
      10A2     5.142857    22B2     5.145968    23B2     5.244998
      28A1     5.315684    15B1     5.516057    29A1     5.657435
      30A1     6.175460    24B2     6.512823    16B1     6.708299
      31A1     6.895299    17B1     7.129276    18B1     7.249558
      25B2     7.292530    11A2     7.308051    32A1     7.328914
      12A2     7.353390    33A1     7.525017    34A1     7.891701
      26B2     7.917107    27B2     8.791580    35A1    15.657709

    Beta Occupied:

       1A1   -20.568415     2A1    -1.351090     1B2    -0.713759
       3A1    -0.584896     1B1    -0.510055

    Beta Virtual:

       4A1     0.029340     2B2     0.047695     5A1     0.135864
       2B1     0.158878     6A1     0.175139     3B2     0.183115
       4B2     0.226941     7A1     0.244867     1A2     0.265426
       3B1     0.299806     8A1     0.310000     5B2     0.365746
       9A1     0.437010     6B2     0.465735     7B2     0.599016
      10A1     0.658436    11A1     0.707792     2A2     0.722765
       4B1     0.731705    12A1     0.830138     5B1     0.846275
      13A1     0.892531     8B2     0.912150     6B1     0.918264
       3A2     0.922236     9B2     0.930727    14A1     0.960966
      15A1     1.020181    10B2     1.042516     7B1     1.082222
      11B2     1.107964     4A2     1.175888    16A1     1.181456
      12B2     1.261582     5A2     1.509463    17A1     1.534415
       8B1     1.581331    18A1     1.806226    13B2     1.820003
      14B2     1.981525    19A1     2.115898     9B1     2.262493
       6A2     2.315201    20A1     2.327183    21A1     2.417909
      10B1     2.420311    15B2     2.443178    22A1     2.479798
      16B2     2.678039    11B1     2.698263    23A1     2.769391
      17B2     2.813841     7A2     2.883003    18B2     3.649948
      24A1     3.737744     8A2     4.016676    12B1     4.080634
      25A1     4.160991    19B2     4.245036    13B1     4.284641
      26A1     4.373315     9A2     4.376203    14B1     4.403193
      20B2     4.516359    27A1     4.722775    21B2     4.838376
      10A2     5.142857    22B2     5.145968    23B2     5.244998
      28A1     5.315684    15B1     5.516057    29A1     5.657435
      30A1     6.175460    24B2     6.512823    16B1     6.708299
      31A1     6.895299    17B1     7.129276    18B1     7.249558
      25B2     7.292530    11A2     7.308051    32A1     7.328914
      12A2     7.353390    33A1     7.525017    34A1     7.891701
      26B2     7.917107    27B2     8.791580    35A1    15.657709

    Final Occupation by Irrep:
             A1    A2    B1    B2
    DOCC [     3,    0,    1,    1 ]
    SOCC [     0,    0,    0,    0 ]

  @UHF Final Energy:   -76.06014925799508

   => Energetics <=

    Nuclear Repulsion Energy =              9.1422207242407438
    One-Electron Energy =                -122.9483117115699429
    Two-Electron Energy =                  37.7459417293341133
    Total Energy =                        -76.0601492579950786

  UHF NO Occupations:
  HONO-2 :    2 A1 2.0000000
  HONO-1 :    1 B1 2.0000000
  HONO-0 :    3 A1 2.0000000
  LUNO+0 :    4 A1 0.0000000
  LUNO+1 :    5 A1 0.0000000
  LUNO+2 :    6 A1 0.0000000
  LUNO+3 :    2 B1 0.0000000

Computation Completed

Properties will be evaluated at   0.000000,   0.000000,   0.000000 [a0]

Properties computed using the SCF density matrix

  Nuclear Dipole Moment: [e a0]
     X:     0.0000      Y:     0.0000      Z:     0.9869

  Electronic Dipole Moment: [e a0]
     X:     0.0000      Y:     0.0000      Z:    -0.2016

  Dipole Moment: [e a0]
     X:     0.0000      Y:     0.0000      Z:     0.7852     Total:     0.7852

  Dipole Moment: [D]
     X:     0.0000      Y:     0.0000      Z:     1.9958     Total:     1.9958

*** tstop() called on c2-22.compute.lan at Mon Mar  8 09:44:21 2021
Module time:
	user time   =      13.77 seconds =       0.23 minutes
	system time =       0.75 seconds =       0.01 minutes
	total time  =          2 seconds =       0.03 minutes
Total time:
	user time   =      13.77 seconds =       0.23 minutes
	system time =       0.75 seconds =       0.01 minutes
	total time  =          2 seconds =       0.03 minutes
 MINTS: Wrapper to libmints.
   by Justin Turney

   Calculation information:
      Number of threads:                12
      Number of atoms:                   3
      Number of AO shells:              32
      Number of SO shells:              23
      Number of primitives:             52
      Number of atomic orbitals:       105
      Number of basis functions:        92

      Number of irreps:                  4
      Integral cutoff                 0.00e+00
      Number of functions per irrep: [  35   12   18   27 ]

 OEINTS: Overlap, kinetic, potential, dipole, and quadrupole integrals
         stored in file 35.

      Computing two-electron integrals...done
      Computed 2241025 non-zero two-electron integrals.
        Stored in file 33.

*** tstart() called on c2-22.compute.lan
*** at Mon Mar  8 09:44:22 2021

	Wfn Parameters:
	--------------------
	Wavefunction         = CCSD_T
	Number of irreps     = 4
	Number of MOs        = 92
	Number of active MOs = 91
	AO-Basis             = NONE
	Semicanonical        = false
	Reference            = UHF
	Print Level          = 1

	IRREP	# MOs	# FZDC	# DOCC	# SOCC	# VIRT	# FZVR
	-----	-----	------	------	------	------	------
	 A1	   35	    1	    2	    0	    32	    0
	 A2	   12	    0	    0	    0	    12	    0
	 B1	   18	    0	    1	    0	    17	    0
	 B2	   27	    0	    1	    0	    26	    0
	Transforming integrals...
	IWL integrals will be deleted.
	(OO|OO)...
	Presorting SO-basis two-electron integrals.
	Sorting File: SO Ints (nn|nn) nbuckets = 1
	Transforming the one-electron integrals and constructing Fock matrices
	Starting AA/AB first half-transformation.
	Sorting AA/AB half-transformed integrals.
	Starting BB first half-transformation.
	Sorting BB half-transformed integrals.
	First half integral transformation complete.
	Starting AA second half-transformation.
	Starting AB second half-transformation.
	Starting BB second half-transformation.
	Two-electron integral transformation complete.
	(OO|OV)...
	Starting AA second half-transformation.
	Starting AB second half-transformation.
	Starting BB second half-transformation.
	Two-electron integral transformation complete.
	(OO|VV)...
	Starting AA second half-transformation.
	Starting AB second half-transformation.
	Starting BB second half-transformation.
	Two-electron integral transformation complete.
	(OV|OO)...
	Starting AA/AB first half-transformation.
	Sorting AA/AB half-transformed integrals.
	Starting BB first half-transformation.
	Sorting BB half-transformed integrals.
	First half integral transformation complete.
	Starting AA second half-transformation.
	Starting AB second half-transformation.
	Starting BB second half-transformation.
	Two-electron integral transformation complete.
	(OV|OV)...
	Starting AA second half-transformation.
	Starting AB second half-transformation.
	Starting BB second half-transformation.
	Two-electron integral transformation complete.
	(OV|VV)...
	Starting AA second half-transformation.
	Starting AB second half-transformation.
	Starting BB second half-transformation.
	Two-electron integral transformation complete.
	(VV|OO)...
	Starting AA/AB first half-transformation.
	Sorting AA/AB half-transformed integrals.
	Starting BB first half-transformation.
	Sorting BB half-transformed integrals.
	First half integral transformation complete.
	Starting AA second half-transformation.
	Starting AB second half-transformation.
	Starting BB second half-transformation.
	Two-electron integral transformation complete.
	(VV|OV)...
	Starting AA second half-transformation.
	Starting AB second half-transformation.
	Starting BB second half-transformation.
	Two-electron integral transformation complete.
	(VV|VV)...
	Starting AA second half-transformation.
	Starting AB second half-transformation.
	Starting BB second half-transformation.
	Two-electron integral transformation complete.
	Frozen core energy     =    -61.30383195702161

	Size of irrep 0 of <AB|CD> integrals:      1.047 (MW) /      8.372 (MB)
	Size of irrep 1 of <AB|CD> integrals:      0.682 (MW) /      5.458 (MB)
	Size of irrep 2 of <AB|CD> integrals:      0.733 (MW) /      5.862 (MB)
	Size of irrep 3 of <AB|CD> integrals:      1.073 (MW) /      8.586 (MB)
	Total:                                     3.535 (MW) /     28.279 (MB)

	Size of irrep 0 of <ab|cd> integrals:      1.047 (MW) /      8.372 (MB)
	Size of irrep 1 of <ab|cd> integrals:      0.682 (MW) /      5.458 (MB)
	Size of irrep 2 of <ab|cd> integrals:      0.733 (MW) /      5.862 (MB)
	Size of irrep 3 of <ab|cd> integrals:      1.073 (MW) /      8.586 (MB)
	Total:                                     3.535 (MW) /     28.279 (MB)

	Size of irrep 0 of <Ab|Cd> integrals:      4.550 (MW) /     36.398 (MB)
	Size of irrep 1 of <Ab|Cd> integrals:      2.729 (MW) /     21.833 (MB)
	Size of irrep 2 of <Ab|Cd> integrals:      2.931 (MW) /     23.448 (MB)
	Size of irrep 3 of <Ab|Cd> integrals:      4.293 (MW) /     34.345 (MB)
	Total:                                    14.503 (MW) /    116.023 (MB)

	Size of irrep 0 of <IA|BC> integrals:      0.228 (MW) /      1.826 (MB)
	Size of irrep 1 of <IA|BC> integrals:      0.111 (MW) /      0.885 (MB)
	Size of irrep 2 of <IA|BC> integrals:      0.134 (MW) /      1.068 (MB)
	Size of irrep 3 of <IA|BC> integrals:      0.199 (MW) /      1.591 (MB)
	Total:                                     0.671 (MW) /      5.371 (MB)

	Size of irrep 0 of <ia|bc> integrals:      0.228 (MW) /      1.826 (MB)
	Size of irrep 1 of <ia|bc> integrals:      0.111 (MW) /      0.885 (MB)
	Size of irrep 2 of <ia|bc> integrals:      0.134 (MW) /      1.068 (MB)
	Size of irrep 3 of <ia|bc> integrals:      0.199 (MW) /      1.591 (MB)
	Total:                                     0.671 (MW) /      5.371 (MB)

	Size of irrep 0 of <Ia|Bc> integrals:      0.228 (MW) /      1.826 (MB)
	Size of irrep 1 of <Ia|Bc> integrals:      0.111 (MW) /      0.885 (MB)
	Size of irrep 2 of <Ia|Bc> integrals:      0.134 (MW) /      1.068 (MB)
	Size of irrep 3 of <Ia|Bc> integrals:      0.199 (MW) /      1.591 (MB)
	Total:                                     0.671 (MW) /      5.371 (MB)

	Size of irrep 0 of <iA|bC> integrals:      0.228 (MW) /      1.826 (MB)
	Size of irrep 1 of <iA|bC> integrals:      0.111 (MW) /      0.885 (MB)
	Size of irrep 2 of <iA|bC> integrals:      0.134 (MW) /      1.068 (MB)
	Size of irrep 3 of <iA|bC> integrals:      0.199 (MW) /      1.591 (MB)
	Total:                                     0.671 (MW) /      5.371 (MB)

	Size of irrep 0 of tIjAb amplitudes:       0.013 (MW) /      0.102 (MB)
	Size of irrep 1 of tIjAb amplitudes:       0.003 (MW) /      0.026 (MB)
	Size of irrep 2 of tIjAb amplitudes:       0.007 (MW) /      0.055 (MB)
	Size of irrep 3 of tIjAb amplitudes:       0.008 (MW) /      0.066 (MB)
	Total:                                     0.031 (MW) /      0.250 (MB)

	Nuclear Rep. energy          =      9.14222072424074
	SCF energy                   =    -76.06014925799508
	One-electron energy          =    -41.47747700751228
	Two-electron (AA) energy     =      3.41710506324058
	Two-electron (BB) energy     =      3.41710506324058
	Two-electron (AB) energy     =     10.74472885581663
	Two-electron energy          =     17.57893898229780
	Reference energy             =    -76.06014925799535

*** tstop() called on c2-22.compute.lan at Mon Mar  8 09:44:37 2021
Module time:
	user time   =     131.66 seconds =       2.19 minutes
	system time =       7.49 seconds =       0.12 minutes
	total time  =         15 seconds =       0.25 minutes
Total time:
	user time   =     149.57 seconds =       2.49 minutes
	system time =       8.56 seconds =       0.14 minutes
	total time  =         18 seconds =       0.30 minutes
            **************************
            *                        *
            *        CCENERGY        *
            *                        *
            **************************

    Nuclear Rep. energy (wfn)     =    9.142220724240744
    SCF energy          (wfn)     =  -76.060149257995079
    Reference energy    (file100) =  -76.060149257995349

    Input parameters:
    -----------------
    Wave function   =     CCSD_T
    Reference wfn   =     UHF
    Brueckner       =     No
    Memory (Mbytes) =     4000.0
    Maxiter         =     50
    R_Convergence   =     1.0e-10
    E_Convergence   =     1.0e-10
    Restart         =     Yes
    DIIS            =     Yes
    AO Basis        =     NONE
    ABCD            =     NEW
    Cache Level     =     2
    Cache Type      =     LRU
    Print Level     =     1
    Num. of threads =     12
    # Amps to Print =     10
    Print MP2 Amps? =     No
    Analyze T2 Amps =     No
    Print Pair Ener =     No
    Local CC        =     No
    SCS-MP2         =     False
    SCSN-MP2        =     False
    SCS-CCSD        =     False

MP2 correlation energy -0.2688389894659545
                Solving CC Amplitude Equations
                ------------------------------
  Iter             Energy              RMS        T1Diag      D1Diag    New D1Diag    D2Diag
  ----     ---------------------    ---------   ----------  ----------  ----------   --------
     0        -0.268838989465955    0.000e+00    0.000000    0.000000    0.000000    0.000000
     1        -0.267291390886412    4.781e-02    0.012133    0.000000    0.000000    0.000000
     2        -0.272384742332043    1.319e-02    0.011907    0.000000    0.000000    0.000000
     3        -0.273609919140294    6.199e-03    0.013769    0.000000    0.000000    0.000000
     4        -0.273505042634041    1.248e-03    0.014093    0.000000    0.000000    0.000000
     5        -0.273488733317972    4.601e-04    0.014226    0.000000    0.000000    0.000000
     6        -0.273489615305242    1.147e-04    0.014256    0.000000    0.000000    0.000000
     7        -0.273488389154372    3.887e-05    0.014262    0.000000    0.000000    0.000000
     8        -0.273488432300609    1.065e-05    0.014264    0.000000    0.000000    0.000000
     9        -0.273488479279016    3.280e-06    0.014264    0.000000    0.000000    0.000000
    10        -0.273488358114624    1.326e-06    0.014264    0.000000    0.000000    0.000000
    11        -0.273488376120571    4.573e-07    0.014264    0.000000    0.000000    0.000000
    12        -0.273488371058370    1.707e-07    0.014264    0.000000    0.000000    0.000000
    13        -0.273488372852681    5.026e-08    0.014264    0.000000    0.000000    0.000000
    14        -0.273488374056831    1.331e-08    0.014264    0.000000    0.000000    0.000000
    15        -0.273488374108078    4.064e-09    0.014264    0.000000    0.000000    0.000000
    16        -0.273488374110708    1.238e-09    0.014264    0.000000    0.000000    0.000000
    17        -0.273488374119700    4.258e-10    0.014264    0.000000    0.000000    0.000000
    18        -0.273488374116721    1.103e-10    0.014264    0.000000    0.000000    0.000000
    19        -0.273488374116370    3.329e-11    0.014264    0.000000    0.000000    0.000000

    Iterations converged.

    Largest TIA Amplitudes:
              2  44        -0.0151729236
              2  45        -0.0130768789
              1   1         0.0085222452
              1   4        -0.0078007506
              3  73         0.0054568059
              2  54         0.0042813423
              3  69         0.0038152568
              2  47        -0.0036742927
              3  80         0.0036187928
              1  23         0.0034013833

    Largest Tia Amplitudes:
              2  44        -0.0151729236
              2  45        -0.0130768789
              1   1         0.0085222452
              1   4        -0.0078007506
              3  73         0.0054568059
              2  54         0.0042813423
              3  69         0.0038152568
              2  47        -0.0036742927
              3  80         0.0036187928
              1  23         0.0034013833

    Largest TIJAB Amplitudes:
      2   1  46   7        -0.0095682685
      3   1  66   6        -0.0093749313

      * MP2 total energy                      =  -76.328988247461297
      * CCSD total energy                     =  -76.333637632111717
      * CCSD(T) total energy                     =  -76.342322363886552
*** Psi4 exiting successfully. Buy a developer a beer!
