                               Psi4 1.3.2 release

  ==> Input File <==

--------------------------------------------------------------------------
memory 4 GB

molecule  {
0 3
O    0.000000000000    0.000000000000   -1.504437499173
H    0.000000000000   -0.748606484000   -0.892894461599
H   -0.000000000000    0.748606484000   -0.892894461599
O    0.000000000000    0.000000000000    1.616958436101
}
set {
basis aug-cc-pvtz
reference uhf
e_convergence 10
scf_type pk
freeze_core true
}

set ccenergy {
e_convergence 10
r_convergence 10
}

e = energy('ccsd(t)')

print_out('Stephenergy {}'.format(e))

--------------------------------------------------------------------------

    Molecular point group: c2v

    Geometry (in Angstrom), charge = 0, multiplicity = 3:

       Center              X                  Y                   Z               Mass
    ------------   -----------------  -----------------  -----------------  -----------------
         O           -0.000000000000     0.000000000000    -1.504437499173    15.994914619570
         H            0.000000000000    -0.748606484000    -0.892894461599     1.007825032230
         H           -0.000000000000     0.748606484000    -0.892894461599     1.007825032230
         O           -0.000000000000     0.000000000000     1.616958436101    15.994914619570

  Charge       = 0
  Multiplicity = 3
  Basis Set: AUG-CC-PVTZ
    Blend: AUG-CC-PVTZ

    Orbital Energies [Eh]
    ---------------------

    Alpha Occupied:

       1A1   -20.732356     2A1   -20.562240     3A1    -1.442054
       4A1    -1.343725     1B2    -0.733516     1B1    -0.732726
       2B2    -0.699706     5A1    -0.639186     6A1    -0.578559
       2B1    -0.503468

    Alpha Virtual:

       7A1     0.035919     3B2     0.048672     3B1     0.131162
       8A1     0.131803     9A1     0.151615     4B2     0.159037
       4B1     0.184969     5B2     0.185990    10A1     0.191025
      11A1     0.261293     6B2     0.262387     1A2     0.266065
      12A1     0.275389     5B1     0.324574    13A1     0.380860
       7B2     0.385614    14A1     0.454195     8B2     0.473820
       2A2     0.611556    15A1     0.626951     9B2     0.627141
      16A1     0.639347     6B1     0.649849    17A1     0.716671
       3A2     0.732483    10B2     0.747800     7B1     0.758922
      18A1     0.786076     8B1     0.829330    11B2     0.849829
      19A1     0.858011     9B1     0.919925    12B2     0.943162
       4A2     0.945511    20A1     0.960327    21A1     0.981292
      10B1     0.991405    13B2     1.003055    22A1     1.057744
      14B2     1.060422    11B1     1.156613     5A2     1.193651
      23A1     1.201027    24A1     1.239633    15B2     1.271703
      16B2     1.324599    25A1     1.419981     6A2     1.508667
      12B1     1.583727    26A1     1.728866    27A1     1.839430
      17B2     1.849753    18B2     1.961170    13B1     1.976217
      19B2     2.006690    28A1     2.006840     7A2     2.017577
      14B1     2.037078    29A1     2.043059     8A2     2.068739
      30A1     2.095171    20B2     2.109530    15B1     2.149387
      31A1     2.200956    16B1     2.305817    21B2     2.322216
       9A2     2.341031    32A1     2.378297    33A1     2.413690
      34A1     2.485790    22B2     2.523987    17B1     2.550698
      35A1     2.604158    23B2     2.698894    18B1     2.726707
      36A1     2.844783    10A2     2.889593    24B2     2.900520
      25B2     3.670637    37A1     3.732917    11A2     4.045247
      19B1     4.053630    20B1     4.108724    26B2     4.115903
      38A1     4.213676    21B1     4.259114    27B2     4.277936
      39A1     4.303322    12A2     4.384818    22B1     4.419553
      40A1     4.499976    28B2     4.543470    41A1     4.764736
      29B2     4.856083    13A2     5.133856    30B2     5.185361
      31B2     5.227951    42A1     5.357304    23B1     5.521898
      43A1     5.651313    44A1     6.212605    24B1     6.312509
      32B2     6.314949    14A2     6.384695    45A1     6.396678
      25B1     6.418975    33B2     6.490874    46A1     6.509347
      34B2     6.545652    26B1     6.767137    15A2     6.821153
      47A1     6.823390    27B1     6.940118    48A1     6.945037
      35B2     6.978505    49A1     7.039747    28B1     7.134143
      29B1     7.263433    16A2     7.312603    36B2     7.327103
      17A2     7.356636    50A1     7.388964    51A1     7.547150
      52A1     7.877748    37B2     7.940675    53A1     8.777992
      38B2     8.803418    54A1    15.614111

    Beta Occupied:

       1A1   -20.653862     2A1   -20.562311     3A1    -1.344139
       4A1    -1.099966     1B2    -0.700045     5A1    -0.589662
       6A1    -0.539075     1B1    -0.503403

    Beta Virtual:

       2B2     0.033108     7A1     0.037178     2B1     0.047425
       3B2     0.069378     8A1     0.137386     9A1     0.154166
       3B1     0.161333     4B2     0.179731    10A1     0.191463
       4B1     0.225754     5B2     0.226020     6B2     0.264905
       1A2     0.266636    11A1     0.269331    12A1     0.278974
       5B1     0.326312    13A1     0.384503     7B2     0.393662
      14A1     0.455874     8B2     0.474293     9B2     0.628625
      15A1     0.641267     2A2     0.643513    16A1     0.660024
       6B1     0.660405    17A1     0.717648     3A2     0.733671
      10B2     0.761199     7B1     0.763011    18A1     0.800765
      19A1     0.862466     8B1     0.910264     9B1     0.937891
      11B2     0.939639     4A2     0.948006    12B2     0.952761
      20A1     0.962099    21A1     0.986951    13B2     1.031130
      10B1     1.036878    22A1     1.059637    14B2     1.069790
      11B1     1.168606     5A2     1.194687    23A1     1.205434
      15B2     1.271831    24A1     1.282319    16B2     1.342876
      25A1     1.443571     6A2     1.508975    12B1     1.584089
      26A1     1.748908    27A1     1.842988    17B2     1.850949
      18B2     1.972756    13B1     2.013613    28A1     2.032050
      19B2     2.032833    14B1     2.063862     7A2     2.070286
      29A1     2.102205    20B2     2.165684     8A2     2.186315
      30A1     2.187513    15B1     2.206903    31A1     2.243214
      16B1     2.315273     9A2     2.346173    21B2     2.354752
      32A1     2.382478    33A1     2.433167    34A1     2.486801
      22B2     2.531913    17B1     2.555591    35A1     2.608125
      23B2     2.699496    18B1     2.726885    36A1     2.845619
      10A2     2.889662    24B2     2.902064    25B2     3.671118
      37A1     3.733341    11A2     4.045395    19B1     4.103715
      38A1     4.218782    20B1     4.227834    21B1     4.261147
      26B2     4.267888    27B2     4.292674    39A1     4.320292
      12A2     4.384892    22B1     4.420400    40A1     4.525129
      28B2     4.545039    41A1     4.765689    29B2     4.856699
      13A2     5.133909    30B2     5.185431    31B2     5.228086
      42A1     5.357747    23B1     5.521904    43A1     5.651605
      44A1     6.217830    24B1     6.421156    32B2     6.423265
      14A2     6.461166    45A1     6.469519    25B1     6.473074
      33B2     6.507364    46A1     6.555319    34B2     6.585968
      26B1     6.774661    47A1     6.947523    15A2     7.009683
      48A1     7.013950    27B1     7.045463    35B2     7.087170
      49A1     7.116881    28B1     7.135574    29B1     7.263507
      16A2     7.312643    36B2     7.327985    17A2     7.356810
      50A1     7.390248    51A1     7.548803    52A1     7.877926
      37B2     7.940682    38B2     8.803288    53A1     8.859306
      54A1    15.614119

    Final Occupation by Irrep:
             A1    A2    B1    B2
    DOCC [     6,    0,    1,    1 ]
    SOCC [     0,    0,    1,    1 ]

  @UHF Final Energy:  -150.87191574401999

   => Energetics <=

    Nuclear Repulsion Energy =             23.1952300265176916
    One-Electron Energy =                -254.1742930371933937
    Two-Electron Energy =                  80.1071472666557014
    Total Energy =                       -150.8719157440199865

  UHF NO Occupations:
  HONO-2 :    6 A1 1.9970819
  HONO-1 :    2 B2 1.0000000
  HONO-0 :    2 B1 1.0000000
  LUNO+0 :    7 A1 0.0029181
  LUNO+1 :    8 A1 0.0016290
  LUNO+2 :    9 A1 0.0000024
  LUNO+3 :   10 A1 0.0000015

Computation Completed

Properties will be evaluated at   0.000000,   0.000000,   0.000000 [a0]

Properties computed using the SCF density matrix

  Nuclear Dipole Moment: [e a0]
     X:    -0.0000      Y:     0.0000      Z:    -1.6736

  Electronic Dipole Moment: [e a0]
     X:     0.0000      Y:     0.0000      Z:     2.5358

  Dipole Moment: [e a0]
     X:    -0.0000      Y:     0.0000      Z:     0.8622     Total:     0.8622

  Dipole Moment: [D]
     X:    -0.0000      Y:     0.0000      Z:     2.1916     Total:     2.1916

*** tstop() called on c1-9.compute.lan at Wed Mar 10 09:32:17 2021
Module time:
	user time   =      50.01 seconds =       0.83 minutes
	system time =       3.21 seconds =       0.05 minutes
	total time  =          6 seconds =       0.10 minutes
Total time:
	user time   =      50.01 seconds =       0.83 minutes
	system time =       3.21 seconds =       0.05 minutes
	total time  =          6 seconds =       0.10 minutes
 MINTS: Wrapper to libmints.
   by Justin Turney

   Calculation information:
      Number of threads:                12
      Number of atoms:                   4
      Number of AO shells:              46
      Number of SO shells:              37
      Number of primitives:             82
      Number of atomic orbitals:       160
      Number of basis functions:       138

      Number of irreps:                  4
      Integral cutoff                 0.00e+00
      Number of functions per irrep: [  54   17   29   38 ]

 OEINTS: Overlap, kinetic, potential, dipole, and quadrupole integrals
         stored in file 35.

      Computing two-electron integrals...done
      Computed 11527812 non-zero two-electron integrals.
        Stored in file 33.

*** tstart() called on c1-9.compute.lan
*** at Wed Mar 10 09:32:20 2021

	Wfn Parameters:
	--------------------
	Wavefunction         = CCSD_T
	Number of irreps     = 4
	Number of MOs        = 138
	Number of active MOs = 136
	AO-Basis             = NONE
	Semicanonical        = false
	Reference            = UHF
	Print Level          = 1

	IRREP	# MOs	# FZDC	# DOCC	# SOCC	# VIRT	# FZVR
	-----	-----	------	------	------	------	------
	 A1	   54	    2	    4	    0	    48	    0
	 A2	   17	    0	    0	    0	    17	    0
	 B1	   29	    0	    1	    1	    27	    0
	 B2	   38	    0	    1	    1	    36	    0
	Transforming integrals...
	IWL integrals will be deleted.
	(OO|OO)...
	Presorting SO-basis two-electron integrals.
	Sorting File: SO Ints (nn|nn) nbuckets = 1
	Transforming the one-electron integrals and constructing Fock matrices
	Starting AA/AB first half-transformation.
	Sorting AA/AB half-transformed integrals.
	Starting BB first half-transformation.
	Sorting BB half-transformed integrals.
	First half integral transformation complete.
	Starting AA second half-transformation.
	Starting AB second half-transformation.
	Starting BB second half-transformation.
	Two-electron integral transformation complete.
	(OO|OV)...
	Starting AA second half-transformation.
	Starting AB second half-transformation.
	Starting BB second half-transformation.
	Two-electron integral transformation complete.
	(OO|VV)...
	Starting AA second half-transformation.
	Starting AB second half-transformation.
	Starting BB second half-transformation.
	Two-electron integral transformation complete.
	(OV|OO)...
	Starting AA/AB first half-transformation.
	Sorting AA/AB half-transformed integrals.
	Starting BB first half-transformation.
	Sorting BB half-transformed integrals.
	First half integral transformation complete.
	Starting AA second half-transformation.
	Starting AB second half-transformation.
	Starting BB second half-transformation.
	Two-electron integral transformation complete.
	(OV|OV)...
	Starting AA second half-transformation.
	Starting AB second half-transformation.
	Starting BB second half-transformation.
	Two-electron integral transformation complete.
	(OV|VV)...
	Starting AA second half-transformation.
	Starting AB second half-transformation.
	Starting BB second half-transformation.
	Two-electron integral transformation complete.
	(VV|OO)...
	Starting AA/AB first half-transformation.
	Sorting AA/AB half-transformed integrals.
	Starting BB first half-transformation.
	Sorting BB half-transformed integrals.
	First half integral transformation complete.
	Starting AA second half-transformation.
	Starting AB second half-transformation.
	Starting BB second half-transformation.
	Two-electron integral transformation complete.
	(VV|OV)...
	Starting AA second half-transformation.
	Starting AB second half-transformation.
	Starting BB second half-transformation.
	Two-electron integral transformation complete.
	(VV|VV)...
	Starting AA second half-transformation.
	Starting AB second half-transformation.
	Starting BB second half-transformation.
	Two-electron integral transformation complete.
	Frozen core energy     =   -125.95587738854404

	Size of irrep 0 of <AB|CD> integrals:      5.040 (MW) /     40.320 (MB)
	Size of irrep 1 of <AB|CD> integrals:      3.197 (MW) /     25.576 (MB)
	Size of irrep 2 of <AB|CD> integrals:      3.640 (MW) /     29.124 (MB)
	Size of irrep 3 of <AB|CD> integrals:      4.783 (MW) /     38.264 (MB)
	Total:                                    16.660 (MW) /    133.283 (MB)

	Size of irrep 0 of <ab|cd> integrals:      5.327 (MW) /     42.615 (MB)
	Size of irrep 1 of <ab|cd> integrals:      3.430 (MW) /     27.439 (MB)
	Size of irrep 2 of <ab|cd> integrals:      3.893 (MW) /     31.142 (MB)
	Size of irrep 3 of <ab|cd> integrals:      5.072 (MW) /     40.572 (MB)
	Total:                                    17.721 (MW) /    141.768 (MB)

	Size of irrep 0 of <Ab|Cd> integrals:     21.912 (MW) /    175.294 (MB)
	Size of irrep 1 of <Ab|Cd> integrals:     13.242 (MW) /    105.939 (MB)
	Size of irrep 2 of <Ab|Cd> integrals:     15.062 (MW) /    120.497 (MB)
	Size of irrep 3 of <Ab|Cd> integrals:     19.705 (MW) /    157.638 (MB)
	Total:                                    69.921 (MW) /    559.368 (MB)

	Size of irrep 0 of <IA|BC> integrals:      1.469 (MW) /     11.748 (MB)
	Size of irrep 1 of <IA|BC> integrals:      0.694 (MW) /      5.550 (MB)
	Size of irrep 2 of <IA|BC> integrals:      0.908 (MW) /      7.266 (MB)
	Size of irrep 3 of <IA|BC> integrals:      1.198 (MW) /      9.588 (MB)
	Total:                                     4.269 (MW) /     34.152 (MB)

	Size of irrep 0 of <ia|bc> integrals:      1.220 (MW) /      9.758 (MB)
	Size of irrep 1 of <ia|bc> integrals:      0.493 (MW) /      3.941 (MB)
	Size of irrep 2 of <ia|bc> integrals:      0.698 (MW) /      5.588 (MB)
	Size of irrep 3 of <ia|bc> integrals:      0.959 (MW) /      7.675 (MB)
	Total:                                     3.370 (MW) /     26.961 (MB)

	Size of irrep 0 of <Ia|Bc> integrals:      1.507 (MW) /     12.058 (MB)
	Size of irrep 1 of <Ia|Bc> integrals:      0.721 (MW) /      5.764 (MB)
	Size of irrep 2 of <Ia|Bc> integrals:      0.939 (MW) /      7.514 (MB)
	Size of irrep 3 of <Ia|Bc> integrals:      1.234 (MW) /      9.872 (MB)
	Total:                                     4.401 (MW) /     35.208 (MB)

	Size of irrep 0 of <iA|bC> integrals:      1.194 (MW) /      9.549 (MB)
	Size of irrep 1 of <iA|bC> integrals:      0.477 (MW) /      3.814 (MB)
	Size of irrep 2 of <iA|bC> integrals:      0.671 (MW) /      5.371 (MB)
	Size of irrep 3 of <iA|bC> integrals:      0.928 (MW) /      7.422 (MB)
	Total:                                     3.270 (MW) /     26.156 (MB)

	Size of irrep 0 of tIjAb amplitudes:       0.094 (MW) /      0.749 (MB)
	Size of irrep 1 of tIjAb amplitudes:       0.015 (MW) /      0.116 (MB)
	Size of irrep 2 of tIjAb amplitudes:       0.047 (MW) /      0.373 (MB)
	Size of irrep 3 of tIjAb amplitudes:       0.053 (MW) /      0.426 (MB)
	Total:                                     0.208 (MW) /      1.664 (MB)

	Nuclear Rep. energy          =     23.19523002651769
	SCF energy                   =   -150.87191574401999
	One-electron energy          =    -84.77330661305571
	Two-electron (AA) energy     =     10.19914460975976
	Two-electron (BB) energy     =      5.42276638510273
	Two-electron (AB) energy     =     21.04012723619854
	Two-electron energy          =     36.66203823106102
	Reference energy             =   -150.87191574402104

*** tstop() called on c1-9.compute.lan at Wed Mar 10 09:32:49 2021
Module time:
	user time   =     121.83 seconds =       2.03 minutes
	system time =      18.86 seconds =       0.31 minutes
	total time  =         29 seconds =       0.48 minutes
Total time:
	user time   =     177.16 seconds =       2.95 minutes
	system time =      22.62 seconds =       0.38 minutes
	total time  =         38 seconds =       0.63 minutes
            **************************
            *                        *
            *        CCENERGY        *
            *                        *
            **************************

    Nuclear Rep. energy (wfn)     =   23.195230026517692
    SCF energy          (wfn)     = -150.871915744019987
    Reference energy    (file100) = -150.871915744021038

    Input parameters:
    -----------------
    Wave function   =     CCSD_T
    Reference wfn   =     UHF
    Brueckner       =     No
    Memory (Mbytes) =     4000.0
    Maxiter         =     50
    R_Convergence   =     1.0e-10
    E_Convergence   =     1.0e-10
    Restart         =     Yes
    DIIS            =     Yes
    AO Basis        =     NONE
    ABCD            =     NEW
    Cache Level     =     2
    Cache Type      =     LRU
    Print Level     =     1
    Num. of threads =     12
    # Amps to Print =     10
    Print MP2 Amps? =     No
    Analyze T2 Amps =     No
    Print Pair Ener =     No
    Local CC        =     No
    SCS-MP2         =     False
    SCSN-MP2        =     False
    SCS-CCSD        =     False

MP2 correlation energy -0.4167721412322888
                Solving CC Amplitude Equations
                ------------------------------
  Iter             Energy              RMS        T1Diag      D1Diag    New D1Diag    D2Diag
  ----     ---------------------    ---------   ----------  ----------  ----------   --------
     0        -0.416772141232289    0.000e+00    0.000000    0.000000    0.000000    0.000000
     1        -0.427489404511515    5.691e-02    0.010506    0.000000    0.000000    0.000000
     2        -0.435668535958669    1.693e-02    0.011033    0.000000    0.000000    0.000000
     3        -0.437781151555366    8.588e-03    0.012909    0.000000    0.000000    0.000000
     4        -0.437656975602742    2.520e-03    0.013278    0.000000    0.000000    0.000000
     5        -0.437640270653353    1.344e-03    0.013441    0.000000    0.000000    0.000000
     6        -0.437667360443110    5.213e-04    0.013470    0.000000    0.000000    0.000000
     7        -0.437672260066775    2.775e-04    0.013468    0.000000    0.000000    0.000000
     8        -0.437672804732258    8.672e-05    0.013464    0.000000    0.000000    0.000000
     9        -0.437674183085556    4.624e-05    0.013465    0.000000    0.000000    0.000000
    10        -0.437672567485542    2.268e-05    0.013466    0.000000    0.000000    0.000000
    11        -0.437672717862577    1.257e-05    0.013467    0.000000    0.000000    0.000000
    12        -0.437672666547044    5.455e-06    0.013467    0.000000    0.000000    0.000000
    13        -0.437672708917467    2.048e-06    0.013468    0.000000    0.000000    0.000000
    14        -0.437672775252313    8.173e-07    0.013468    0.000000    0.000000    0.000000
    15        -0.437672779993885    2.224e-07    0.013468    0.000000    0.000000    0.000000
    16        -0.437672780780332    1.207e-07    0.013468    0.000000    0.000000    0.000000
    17        -0.437672781994983    3.830e-08    0.013468    0.000000    0.000000    0.000000
    18        -0.437672781370881    1.789e-08    0.013468    0.000000    0.000000    0.000000

      * MP2 total energy                      = -151.288687885253324
      * CCSD total energy                     = -151.309588525257112
      * CCSD(T) total energy                     = -151.321952090156913
*** Psi4 exiting successfully. Buy a developer a beer!
