                               Psi4 1.3.2 release

  ==> Input File <==

--------------------------------------------------------------------------
memory 4 GB

molecule  {
0 3
O   -1.522636442466   -0.028942593331    0.000000000000
H   -0.562484906533   -0.010490839963    0.000000000000
H   -1.778159169963    0.897659372220    0.000000000000
O    1.670118298289   -0.026957089530    0.000000000000
}
set {
basis aug-cc-pvtz
reference uhf
e_convergence 10
scf_type pk
freeze_core true
}

set ccenergy {
e_convergence 10
r_convergence 10
}

e = energy('ccsd(t)')

print_out('Stephenergy {}'.format(e))

--------------------------------------------------------------------------

    Molecular point group: cs

    Geometry (in Angstrom), charge = 0, multiplicity = 3:

       Center              X                  Y                   Z               Mass
    ------------   -----------------  -----------------  -----------------  -----------------
         O           -1.522636442466    -0.028942593331     0.000000000000    15.994914619570
         H           -0.562484906533    -0.010490839963     0.000000000000     1.007825032230
         H           -1.778159169963     0.897659372220     0.000000000000     1.007825032230
         O            1.670118298289    -0.026957089530     0.000000000000    15.994914619570

  Charge       = 0
  Multiplicity = 3
  Basis Set: AUG-CC-PVTZ
    Blend: AUG-CC-PVTZ

    Orbital Energies [Eh]
    ---------------------

    Alpha Occupied:

       1Ap   -20.734763     2Ap   -20.558355     3Ap    -1.444070
       4Ap    -1.343521     5Ap    -0.734621     1App   -0.734473
       6Ap    -0.710330     7Ap    -0.636777     8Ap    -0.575023
       2App   -0.501818

    Alpha Virtual:

       9Ap     0.034577    10Ap     0.053274    11Ap     0.127559
       3App    0.131539    12Ap     0.148064    13Ap     0.161229
      14Ap     0.183389     4App    0.186160    15Ap     0.211408
      16Ap     0.241674    17Ap     0.271999     5App    0.282387
      18Ap     0.293251     6App    0.323411    19Ap     0.372590
      20Ap     0.392610    21Ap     0.460035    22Ap     0.558753
       7App    0.600181    23Ap     0.608747    24Ap     0.644202
      25Ap     0.668781    26Ap     0.712177     8App    0.712447
       9App    0.734664    10App    0.746986    27Ap     0.765553
      28Ap     0.797060    11App    0.824773    29Ap     0.852050
      30Ap     0.865720    12App    0.883205    31Ap     0.922908
      13App    0.941980    32Ap     0.944031    33Ap     0.956819
      14App    0.983562    34Ap     0.986678    35Ap     1.043268
      36Ap     1.128158    37Ap     1.169025    15App    1.178197
      38Ap     1.194197    16App    1.259013    39Ap     1.271736
      40Ap     1.323474    17App    1.528607    41Ap     1.555167
      18App    1.601598    42Ap     1.688394    43Ap     1.819589
      44Ap     1.825622    19App    1.975725    45Ap     1.975765
      46Ap     1.996870    20App    2.011236    47Ap     2.017964
      21App    2.048009    48Ap     2.060229    22App    2.121775
      49Ap     2.163861    50Ap     2.164714    23App    2.210149
      24App    2.294339    51Ap     2.299458    52Ap     2.330397
      53Ap     2.414231    25App    2.448801    54Ap     2.460026
      26App    2.523534    55Ap     2.536262    56Ap     2.630812
      57Ap     2.670613    27App    2.728502    58Ap     2.749542
      59Ap     2.867217    60Ap     2.943470    28App    2.946131
      61Ap     3.699383    62Ap     3.894042    29App    4.036478
      30App    4.058479    63Ap     4.076371    31App    4.173306
      64Ap     4.201849    65Ap     4.275309    32App    4.299951
      66Ap     4.376264    33App    4.394073    67Ap     4.436982
      34App    4.441533    68Ap     4.577713    69Ap     4.784331
      70Ap     4.964235    35App    5.159309    71Ap     5.184411
      72Ap     5.308876    73Ap     5.380399    36App    5.531491
      74Ap     5.693605    75Ap     6.199736    37App    6.310394
      76Ap     6.310436    38App    6.372655    77Ap     6.375406
      39App    6.518900    78Ap     6.525835    79Ap     6.555338
      80Ap     6.633799    40App    6.724889    81Ap     6.812509
      41App    6.818590    82Ap     6.916137    42App    6.933805
      83Ap     6.967157    84Ap     7.049445    43App    7.148651
      44App    7.275800    85Ap     7.325647    45App    7.331143
      86Ap     7.361135    46App    7.440992    87Ap     7.663037
      88Ap     7.951781    89Ap     7.968362    90Ap     8.818556
      91Ap     9.383601    92Ap    16.585046

    Beta Occupied:

       1Ap   -20.655987     2Ap   -20.558491     3Ap    -1.344111
       4Ap    -1.101618     5Ap    -0.709396     6Ap    -0.581344
       7Ap    -0.542150     1App   -0.501870

    Beta Virtual:

       8Ap     0.034219     9Ap     0.046158     2App    0.047759
      10Ap     0.057664    11Ap     0.144153    12Ap     0.151006
       3App    0.160350    13Ap     0.179849    14Ap     0.210191
      15Ap     0.217837     4App    0.225980    16Ap     0.251299
      17Ap     0.274016     5App    0.282722    18Ap     0.295494
       6App    0.327070    19Ap     0.376384    20Ap     0.403229
      21Ap     0.460765    22Ap     0.561664     7App    0.632499
      23Ap     0.639050    24Ap     0.647247    25Ap     0.671807
      26Ap     0.712867     8App    0.726298     9App    0.735801
      10App    0.748357    27Ap     0.784224    28Ap     0.809294
      29Ap     0.858012    11App    0.867529    30Ap     0.918400
      12App    0.935564    31Ap     0.943602    13App    0.949642
      32Ap     0.954180    33Ap     0.974294    34Ap     1.015939
      14App    1.024941    35Ap     1.047315    36Ap     1.153712
      37Ap     1.177203    15App    1.181477    38Ap     1.219929
      16App    1.270125    39Ap     1.273843    40Ap     1.334285
      17App    1.529427    41Ap     1.560981    18App    1.603210
      42Ap     1.715468    43Ap     1.824749    44Ap     1.832797
      45Ap     2.004362    19App    2.013831    46Ap     2.014044
      20App    2.052648    47Ap     2.065359    21App    2.169321
      22App    2.179566    48Ap     2.179695    49Ap     2.203805
      50Ap     2.226154    23App    2.248155    24App    2.296230
      51Ap     2.316093    52Ap     2.344200    53Ap     2.421843
      25App    2.451264    54Ap     2.460852    26App    2.532104
      55Ap     2.543501    56Ap     2.636821    57Ap     2.681611
      27App    2.729648    58Ap     2.756293    59Ap     2.871993
      60Ap     2.946204    28App    2.946810    61Ap     3.699816
      62Ap     3.896817    29App    4.036688    30App    4.147044
      63Ap     4.180987    64Ap     4.245415    31App    4.254680
      65Ap     4.295991    32App    4.300270    66Ap     4.390910
      33App    4.394265    34App    4.443079    67Ap     4.468107
      68Ap     4.578645    69Ap     4.785717    70Ap     4.966447
      35App    5.159294    71Ap     5.184914    72Ap     5.309092
      73Ap     5.381467    36App    5.531576    74Ap     5.694254
      75Ap     6.200194    37App    6.419352    76Ap     6.419378
      38App    6.448062    77Ap     6.450898    78Ap     6.532253
      39App    6.573875    79Ap     6.604985    80Ap     6.679992
      40App    6.729201    81Ap     6.918648    41App    7.004646
      82Ap     7.005741    42App    7.042229    83Ap     7.071345
      84Ap     7.129775    43App    7.150798    44App    7.276212
      85Ap     7.325762    45App    7.332023    86Ap     7.361634
      46App    7.441425    87Ap     7.664383    88Ap     7.952217
      89Ap     7.968465    90Ap     8.820978    91Ap     9.458161
      92Ap    16.585609

    Final Occupation by Irrep:
             Ap   App
    DOCC [     7,    1 ]
    SOCC [     1,    1 ]

  @UHF Final Energy:  -150.87452619945952

   => Energetics <=

    Nuclear Repulsion Energy =             22.8508797381910185
    One-Electron Energy =                -253.4820933207534495
    Two-Electron Energy =                  79.7566873831029000
    Total Energy =                       -150.8745261994595239

  UHF NO Occupations:
  HONO-2 :    7 Ap 1.9970300
  HONO-1 :    8 Ap 1.0000000
  HONO-0 :    2App 1.0000000
  LUNO+0 :    9 Ap 0.0029700
  LUNO+1 :   10 Ap 0.0017122
  LUNO+2 :   11 Ap 0.0000024
  LUNO+3 :   12 Ap 0.0000018

Computation Completed

Properties will be evaluated at   0.000000,   0.000000,   0.000000 [a0]

Properties computed using the SCF density matrix

  Nuclear Dipole Moment: [e a0]
     X:    -2.1936      Y:     0.8314      Z:     0.0000

  Electronic Dipole Moment: [e a0]
     X:     2.7558      Y:    -0.2135      Z:     0.0000

  Dipole Moment: [e a0]
     X:     0.5623      Y:     0.6180      Z:     0.0000     Total:     0.8355

  Dipole Moment: [D]
     X:     1.4291      Y:     1.5707      Z:     0.0000     Total:     2.1236

*** tstop() called on c4-16.compute.lan at Tue Mar  9 14:57:35 2021
Module time:
	user time   =      63.26 seconds =       1.05 minutes
	system time =       1.55 seconds =       0.03 minutes
	total time  =          6 seconds =       0.10 minutes
Total time:
	user time   =      63.26 seconds =       1.05 minutes
	system time =       1.55 seconds =       0.03 minutes
	total time  =          6 seconds =       0.10 minutes
 MINTS: Wrapper to libmints.
   by Justin Turney

   Calculation information:
      Number of threads:                12
      Number of atoms:                   4
      Number of AO shells:              46
      Number of SO shells:              46
      Number of primitives:             82
      Number of atomic orbitals:       160
      Number of basis functions:       138

      Number of irreps:                  2
      Integral cutoff                 0.00e+00
      Number of functions per irrep: [  92   46 ]

 OEINTS: Overlap, kinetic, potential, dipole, and quadrupole integrals
         stored in file 35.

      Computing two-electron integrals...done
      Computed 22939286 non-zero two-electron integrals.
        Stored in file 33.

*** tstart() called on c4-16.compute.lan
*** at Tue Mar  9 14:57:39 2021

	Wfn Parameters:
	--------------------
	Wavefunction         = CCSD_T
	Number of irreps     = 2
	Number of MOs        = 138
	Number of active MOs = 136
	AO-Basis             = NONE
	Semicanonical        = false
	Reference            = UHF
	Print Level          = 1

	IRREP	# MOs	# FZDC	# DOCC	# SOCC	# VIRT	# FZVR
	-----	-----	------	------	------	------	------
	 Ap	   92	    2	    5	    1	    84	    0
	 App	   46	    0	    1	    1	    44	    0
	Transforming integrals...
	IWL integrals will be deleted.
	(OO|OO)...
	Presorting SO-basis two-electron integrals.
	Sorting File: SO Ints (nn|nn) nbuckets = 1
	Transforming the one-electron integrals and constructing Fock matrices
	Starting AA/AB first half-transformation.
	Sorting AA/AB half-transformed integrals.
	Starting BB first half-transformation.
	Sorting BB half-transformed integrals.
	First half integral transformation complete.
	Starting AA second half-transformation.
	Starting AB second half-transformation.
	Starting BB second half-transformation.
	Two-electron integral transformation complete.
	(OO|OV)...
	Starting AA second half-transformation.
	Starting AB second half-transformation.
	Starting BB second half-transformation.
	Two-electron integral transformation complete.
	(OO|VV)...
	Starting AA second half-transformation.
	Starting AB second half-transformation.
	Starting BB second half-transformation.
	Two-electron integral transformation complete.
	(OV|OO)...
	Starting AA/AB first half-transformation.
	Sorting AA/AB half-transformed integrals.
	Starting BB first half-transformation.
	Sorting BB half-transformed integrals.
	First half integral transformation complete.
	Starting AA second half-transformation.
	Starting AB second half-transformation.
	Starting BB second half-transformation.
	Two-electron integral transformation complete.
	(OV|OV)...
	Starting AA second half-transformation.
	Starting AB second half-transformation.
	Starting BB second half-transformation.
	Two-electron integral transformation complete.
	(OV|VV)...
	Starting AA second half-transformation.
	Starting AB second half-transformation.
	Starting BB second half-transformation.
	Two-electron integral transformation complete.
	(VV|OO)...
	Starting AA/AB first half-transformation.
	Sorting AA/AB half-transformed integrals.
	Starting BB first half-transformation.
	Sorting BB half-transformed integrals.
	First half integral transformation complete.
	Starting AA second half-transformation.
	Starting AB second half-transformation.
	Starting BB second half-transformation.
	Two-electron integral transformation complete.
	(VV|OV)...
	Starting AA second half-transformation.
	Starting AB second half-transformation.
	Starting BB second half-transformation.
	Two-electron integral transformation complete.
	(VV|VV)...
	Starting AA second half-transformation.
	Starting AB second half-transformation.
	Starting BB second half-transformation.
	Two-electron integral transformation complete.
	Frozen core energy     =   -125.82542237240511

	Size of irrep 0 of <AB|CD> integrals:     19.643 (MW) /    157.141 (MB)
	Size of irrep 1 of <AB|CD> integrals:     13.660 (MW) /    109.283 (MB)
	Total:                                    33.303 (MW) /    266.424 (MB)

	Size of irrep 0 of <ab|cd> integrals:     20.794 (MW) /    166.349 (MB)
	Size of irrep 1 of <ab|cd> integrals:     14.631 (MW) /    117.045 (MB)
	Total:                                    35.424 (MW) /    283.394 (MB)

	Size of irrep 0 of <Ab|Cd> integrals:     83.174 (MW) /    665.395 (MB)
	Size of irrep 1 of <Ab|Cd> integrals:     56.550 (MW) /    452.403 (MB)
	Total:                                   139.725 (MW) /   1117.798 (MB)

	Size of irrep 0 of <IA|BC> integrals:      5.323 (MW) /     42.586 (MB)
	Size of irrep 1 of <IA|BC> integrals:      3.193 (MW) /     25.547 (MB)
	Total:                                     8.517 (MW) /     68.133 (MB)

	Size of irrep 0 of <ia|bc> integrals:      4.348 (MW) /     34.780 (MB)
	Size of irrep 1 of <ia|bc> integrals:      2.372 (MW) /     18.972 (MB)
	Total:                                     6.719 (MW) /     53.752 (MB)

	Size of irrep 0 of <Ia|Bc> integrals:      5.472 (MW) /     43.776 (MB)
	Size of irrep 1 of <Ia|Bc> integrals:      3.309 (MW) /     26.470 (MB)
	Total:                                     8.781 (MW) /     70.246 (MB)

	Size of irrep 0 of <iA|bC> integrals:      4.232 (MW) /     33.853 (MB)
	Size of irrep 1 of <iA|bC> integrals:      2.286 (MW) /     18.289 (MB)
	Total:                                     6.518 (MW) /     52.142 (MB)

	Size of irrep 0 of tIjAb amplitudes:       0.292 (MW) /      2.335 (MB)
	Size of irrep 1 of tIjAb amplitudes:       0.120 (MW) /      0.963 (MB)
	Total:                                     0.412 (MW) /      3.297 (MB)

	Nuclear Rep. energy          =     22.85087973819102
	SCF energy                   =   -150.87452619945952
	One-electron energy          =    -84.33884294076169
	Two-electron (AA) energy     =     10.12265838395666
	Two-electron (BB) energy     =      5.38676380971064
	Two-electron (AB) energy     =     20.92943718184697
	Two-electron energy          =     36.43885937551427
	Reference energy             =   -150.87452619946151

*** tstop() called on c4-16.compute.lan at Tue Mar  9 14:58:15 2021
Module time:
	user time   =     115.66 seconds =       1.93 minutes
	system time =      18.28 seconds =       0.30 minutes
	total time  =         36 seconds =       0.60 minutes
Total time:
	user time   =     183.99 seconds =       3.07 minutes
	system time =      20.43 seconds =       0.34 minutes
	total time  =         46 seconds =       0.77 minutes
            **************************
            *                        *
            *        CCENERGY        *
            *                        *
            **************************

    Nuclear Rep. energy (wfn)     =   22.850879738191018
    SCF energy          (wfn)     = -150.874526199459524
    Reference energy    (file100) = -150.874526199461513

    Input parameters:
    -----------------
    Wave function   =     CCSD_T
    Reference wfn   =     UHF
    Brueckner       =     No
    Memory (Mbytes) =     4000.0
    Maxiter         =     50
    R_Convergence   =     1.0e-10
    E_Convergence   =     1.0e-10
    Restart         =     Yes
    DIIS            =     Yes
    AO Basis        =     NONE
    ABCD            =     NEW
    Cache Level     =     2
    Cache Type      =     LRU
    Print Level     =     1
    Num. of threads =     12
    # Amps to Print =     10
    Print MP2 Amps? =     No
    Analyze T2 Amps =     No
    Print Pair Ener =     No
    Local CC        =     No
    SCS-MP2         =     False
    SCSN-MP2        =     False
    SCS-CCSD        =     False

MP2 correlation energy -0.4164658651993052
                Solving CC Amplitude Equations
                ------------------------------
  Iter             Energy              RMS        T1Diag      D1Diag    New D1Diag    D2Diag
  ----     ---------------------    ---------   ----------  ----------  ----------   --------
     0        -0.416465865199305    0.000e+00    0.000000    0.000000    0.000000    0.000000
     1        -0.427230596455426    5.675e-02    0.010520    0.000000    0.000000    0.000000
     2        -0.435310797504105    1.684e-02    0.011011    0.000000    0.000000    0.000000
     3        -0.437420666768784    8.548e-03    0.012876    0.000000    0.000000    0.000000
     4        -0.437295595652933    2.530e-03    0.013242    0.000000    0.000000    0.000000
     5        -0.437280682625314    1.322e-03    0.013398    0.000000    0.000000    0.000000
     6        -0.437307931895334    5.147e-04    0.013420    0.000000    0.000000    0.000000
     7        -0.437312718936207    2.653e-04    0.013415    0.000000    0.000000    0.000000
     8        -0.437313286873661    9.535e-05    0.013410    0.000000    0.000000    0.000000
     9        -0.437314677866185    6.820e-05    0.013411    0.000000    0.000000    0.000000
    10        -0.437313146531527    5.707e-05    0.013412    0.000000    0.000000    0.000000
    11        -0.437313270663758    5.394e-05    0.013413    0.000000    0.000000    0.000000
    12        -0.437313074171315    5.227e-05    0.013415    0.000000    0.000000    0.000000
    13        -0.437313059032580    5.134e-05    0.013417    0.000000    0.000000    0.000000
    14        -0.437313953456804    5.008e-05    0.013427    0.000000    0.000000    0.000000
    15        -0.437314279891350    4.581e-05    0.013471    0.000000    0.000000    0.000000
    16        -0.437314056407331    3.328e-05    0.013588    0.000000    0.000000    0.000000
    17        -0.437313766599506    1.699e-05    0.013660    0.000000    0.000000    0.000000
    18        -0.437313623936113    7.985e-06    0.013681    0.000000    0.000000    0.000000
    19        -0.437313870351736    3.510e-06    0.013686    0.000000    0.000000    0.000000
    20        -0.437313988096517    1.549e-06    0.013687    0.000000    0.000000    0.000000
    21        -0.437313994799102    6.148e-07    0.013687    0.000000    0.000000    0.000000
    22        -0.437313995712767    2.778e-07    0.013687    0.000000    0.000000    0.000000
    23        -0.437313995044182    1.393e-07    0.013687    0.000000    0.000000    0.000000
    24        -0.437313994300348    5.341e-08    0.013687    0.000000    0.000000    0.000000
    25        -0.437313995189179    2.647e-08    0.013687    0.000000    0.000000    0.000000
    26        -0.437313995617803    1.836e-08    0.013687    0.000000    0.000000    0.000000
    27        -0.437313995744746    1.666e-08    0.013688    0.000000    0.000000    0.000000
    28        -0.437313995722745    1.606e-08    0.013688    0.000000    0.000000    0.000000
    29        -0.437313995633592    1.565e-08    0.013688    0.000000    0.000000    0.000000
    30        -0.437313995454449    1.515e-08    0.013688    0.000000    0.000000    0.000000
    31        -0.437313995481855    1.365e-08    0.013688    0.000000    0.000000    0.000000
    32        -0.437313995721400    8.721e-09    0.013688    0.000000    0.000000    0.000000
    33        -0.437313995809548    4.045e-09    0.013688    0.000000    0.000000    0.000000
    34        -0.437313995864234    1.720e-09    0.013688    0.000000    0.000000    0.000000
    35        -0.437313995871127    6.792e-10    0.013688    0.000000    0.000000    0.000000
    36        -0.437313995870206    2.729e-10    0.013688    0.000000    0.000000    0.000000

      * MP2 total energy                      = -151.290992064660827
      * CCSD total energy                     = -151.311840195330774
      * CCSD(T) total energy                     = -151.324179205409678
*** Psi4 exiting successfully. Buy a developer a beer!
