                               Psi4 1.3.2 release

  ==> Input File <==

--------------------------------------------------------------------------
memory 4 GB

molecule  {
0 3
O    0.000000000000    0.000000000000   -1.647931531941
H    0.000000000000   -0.754282211900   -1.050589551467
H   -0.000000000000    0.754282211900   -1.050589551467
O    0.000000000000    0.000000000000    1.780324917433
}
set {
basis aug-cc-pvtz
reference uhf
e_convergence 10
scf_type pk
freeze_core true
}

set ccenergy {
e_convergence 10
r_convergence 10
}

e = energy('ccsd(t)')

print_out('Stephenergy {}'.format(e))

--------------------------------------------------------------------------

    Molecular point group: c2v

    Geometry (in Angstrom), charge = 0, multiplicity = 3:

       Center              X                  Y                   Z               Mass
    ------------   -----------------  -----------------  -----------------  -----------------
         O            0.000000000000     0.000000000000    -1.647931531941    15.994914619570
         H            0.000000000000    -0.754282211900    -1.050589551467     1.007825032230
         H           -0.000000000000     0.754282211900    -1.050589551467     1.007825032230
         O            0.000000000000     0.000000000000     1.780324917433    15.994914619570

  Charge       = 0
  Multiplicity = 3
  Basis Set: AUG-CC-PVTZ
    Blend: AUG-CC-PVTZ

    Orbital Energies [Eh]
    ---------------------

    Alpha Occupied:

       1A1   -20.728963     2A1   -20.563164     3A1    -1.437942
       4A1    -1.346783     1B2    -0.729347     1B1    -0.728969
       2B2    -0.707630     5A1    -0.632269     6A1    -0.580270
       2B1    -0.505343

    Alpha Virtual:

       7A1     0.035479     3B2     0.048548     3B1     0.132103
       8A1     0.134735     9A1     0.147989     4B2     0.157996
       4B1     0.181143     5B2     0.184983    10A1     0.189274
      11A1     0.250176     6B2     0.257429     1A2     0.266109
      12A1     0.273475     5B1     0.319599    13A1     0.367464
       7B2     0.382344    14A1     0.454109     8B2     0.471743
       2A2     0.609076     9B2     0.615615    15A1     0.618299
      16A1     0.619544     6B1     0.640536    17A1     0.717611
       3A2     0.731157    10B2     0.735880     7B1     0.741931
      18A1     0.800384    19A1     0.838217     8B1     0.840900
      11B2     0.854138     9B1     0.915339    20A1     0.925077
       4A2     0.934010    12B2     0.941773    21A1     0.958280
      10B1     0.960494    13B2     0.961775    22A1     1.048721
      14B2     1.053932    11B1     1.122815     5A2     1.185710
      23A1     1.186488    15B2     1.254966    24A1     1.262042
      16B2     1.275352    25A1     1.345752     6A2     1.511316
      12B1     1.591173    26A1     1.630520    27A1     1.829009
      17B2     1.830010    18B2     1.971748    13B1     1.978587
      19B2     1.989162    28A1     2.005291     7A2     2.011036
      14B1     2.026042    29A1     2.036180     8A2     2.039695
      20B2     2.080953    30A1     2.086111    15B1     2.119573
      31A1     2.145171    21B2     2.260248    16B1     2.278675
       9A2     2.329111    32A1     2.337008    33A1     2.402234
      34A1     2.487820    22B2     2.491993    17B1     2.505371
      35A1     2.575392    23B2     2.689447    18B1     2.718789
      36A1     2.819909    10A2     2.888528    24B2     2.900248
      25B2     3.666479    37A1     3.751834    11A2     4.031218
      19B1     4.050672    26B2     4.084490    20B1     4.100709
      38A1     4.146698    27B2     4.277432    21B1     4.281617
      39A1     4.366134    12A2     4.382849    40A1     4.404865
      22B1     4.416073    28B2     4.530446    41A1     4.748916
      29B2     4.851513    13A2     5.148015    30B2     5.164830
      31B2     5.249271    42A1     5.366760    23B1     5.526727
      43A1     5.672632    44A1     6.199856    24B1     6.315148
      32B2     6.315980    14A2     6.369990    45A1     6.375158
      25B1     6.401967    33B2     6.449883    46A1     6.479875
      34B2     6.527321    26B1     6.737025    15A2     6.819112
      47A1     6.820541    27B1     6.927310    48A1     6.930552
      35B2     6.956666    49A1     7.032971    28B1     7.135107
      29B1     7.260178    16A2     7.317225    36B2     7.340184
      17A2     7.357750    50A1     7.358480    51A1     7.545239
      52A1     7.897291    37B2     7.936235    53A1     8.529638
      38B2     8.811028    54A1    15.711543

    Beta Occupied:

       1A1   -20.650397     2A1   -20.563202     3A1    -1.346956
       4A1    -1.095641     1B2    -0.707764     5A1    -0.584359
       6A1    -0.538553     1B1    -0.505335

    Beta Virtual:

       2B2     0.035390     7A1     0.036598     2B1     0.049885
       3B2     0.069575     8A1     0.140899     9A1     0.150569
       3B1     0.160452     4B2     0.180904    10A1     0.189591
       5B2     0.221829     4B1     0.225285    11A1     0.259180
       6B2     0.263044     1A2     0.266423    12A1     0.274902
       5B1     0.320240    13A1     0.370851     7B2     0.387389
      14A1     0.455240     8B2     0.472278     9B2     0.618065
      15A1     0.620712     2A2     0.641305    16A1     0.651300
       6B1     0.652655    17A1     0.718936     3A2     0.732584
       7B1     0.743901    10B2     0.747291    18A1     0.808878
      19A1     0.851317     8B1     0.912207    20A1     0.930391
       9B1     0.930468     4A2     0.935401    11B2     0.939961
      12B2     0.944539    21A1     0.959208    13B2     1.009402
      10B1     1.024917    22A1     1.049314    14B2     1.056742
      11B1     1.127838     5A2     1.186415    23A1     1.190553
      15B2     1.268673    16B2     1.278404    24A1     1.280702
      25A1     1.403422     6A2     1.511422    12B1     1.591275
      26A1     1.643133    27A1     1.830135    17B2     1.831252
      18B2     1.978489    13B1     2.016684    19B2     2.021326
      28A1     2.030477     7A2     2.041462    14B1     2.046250
      29A1     2.099828    20B2     2.124697    30A1     2.154804
       8A2     2.182363    15B1     2.188915    31A1     2.195121
      16B1     2.282860    21B2     2.306314     9A2     2.332040
      32A1     2.358084    33A1     2.412917    34A1     2.492038
      22B2     2.496596    17B1     2.510039    35A1     2.578400
      23B2     2.689606    18B1     2.718878    36A1     2.820218
      10A2     2.888551    24B2     2.902283    25B2     3.666517
      37A1     3.751982    11A2     4.031305    19B1     4.100070
      38A1     4.161238    20B1     4.223475    26B2     4.240981
      21B1     4.281637    27B2     4.291163    12A2     4.382896
      39A1     4.390087    40A1     4.413879    22B1     4.416254
      28B2     4.530641    41A1     4.749063    29B2     4.851604
      13A2     5.148032    30B2     5.164834    31B2     5.249294
      42A1     5.367208    23B1     5.526731    43A1     5.672966
      44A1     6.201528    24B1     6.423997    32B2     6.424684
      14A2     6.446651    45A1     6.450219    25B1     6.457262
      33B2     6.494424    46A1     6.528693    34B2     6.539411
      26B1     6.743420    47A1     6.930570    15A2     7.008139
      48A1     7.009927    27B1     7.034756    35B2     7.065698
      49A1     7.113969    28B1     7.135369    29B1     7.260134
      16A2     7.317263    36B2     7.342289    17A2     7.357812
      50A1     7.359147    51A1     7.545941    52A1     7.897522
      37B2     7.936219    53A1     8.614769    38B2     8.810968
      54A1    15.711537

    Final Occupation by Irrep:
             A1    A2    B1    B2
    DOCC [     6,    0,    1,    1 ]
    SOCC [     0,    0,    1,    1 ]

  @UHF Final Energy:  -150.87353755185950

   => Energetics <=

    Nuclear Repulsion Energy =             21.9194719869927397
    One-Electron Energy =                -251.6331356599626474
    Two-Electron Energy =                  78.8401261211104298
    Total Energy =                       -150.8735375518594992

  UHF NO Occupations:
  HONO-2 :    6 A1 1.9970742
  HONO-1 :    2 B2 1.0000000
  HONO-0 :    2 B1 1.0000000
  LUNO+0 :    7 A1 0.0029258
  LUNO+1 :    8 A1 0.0016875
  LUNO+2 :    9 A1 0.0000024
  LUNO+3 :   10 A1 0.0000004

Computation Completed

Properties will be evaluated at   0.000000,   0.000000,   0.000000 [a0]

Properties computed using the SCF density matrix

  Nuclear Dipole Moment: [e a0]
     X:     0.0000      Y:     0.0000      Z:    -1.9692

  Electronic Dipole Moment: [e a0]
     X:     0.0000      Y:     0.0000      Z:     2.8032

  Dipole Moment: [e a0]
     X:     0.0000      Y:     0.0000      Z:     0.8340     Total:     0.8340

  Dipole Moment: [D]
     X:     0.0000      Y:     0.0000      Z:     2.1198     Total:     2.1198

*** tstop() called on b1-18.compute.lan at Wed Mar 10 09:54:36 2021
Module time:
	user time   =      49.68 seconds =       0.83 minutes
	system time =       1.37 seconds =       0.02 minutes
	total time  =          6 seconds =       0.10 minutes
Total time:
	user time   =      49.68 seconds =       0.83 minutes
	system time =       1.37 seconds =       0.02 minutes
	total time  =          6 seconds =       0.10 minutes
 MINTS: Wrapper to libmints.
   by Justin Turney

   Calculation information:
      Number of threads:                12
      Number of atoms:                   4
      Number of AO shells:              46
      Number of SO shells:              37
      Number of primitives:             82
      Number of atomic orbitals:       160
      Number of basis functions:       138

      Number of irreps:                  4
      Integral cutoff                 0.00e+00
      Number of functions per irrep: [  54   17   29   38 ]

 OEINTS: Overlap, kinetic, potential, dipole, and quadrupole integrals
         stored in file 35.

      Computing two-electron integrals...done
      Computed 11333194 non-zero two-electron integrals.
        Stored in file 33.

*** tstart() called on b1-18.compute.lan
*** at Wed Mar 10 09:54:38 2021

	Wfn Parameters:
	--------------------
	Wavefunction         = CCSD_T
	Number of irreps     = 4
	Number of MOs        = 138
	Number of active MOs = 136
	AO-Basis             = NONE
	Semicanonical        = false
	Reference            = UHF
	Print Level          = 1

	IRREP	# MOs	# FZDC	# DOCC	# SOCC	# VIRT	# FZVR
	-----	-----	------	------	------	------	------
	 A1	   54	    2	    4	    0	    48	    0
	 A2	   17	    0	    0	    0	    17	    0
	 B1	   29	    0	    1	    1	    27	    0
	 B2	   38	    0	    1	    1	    36	    0
	Transforming integrals...
	IWL integrals will be deleted.
	(OO|OO)...
	Presorting SO-basis two-electron integrals.
	Sorting File: SO Ints (nn|nn) nbuckets = 1
	Transforming the one-electron integrals and constructing Fock matrices
	Starting AA/AB first half-transformation.
	Sorting AA/AB half-transformed integrals.
	Starting BB first half-transformation.
	Sorting BB half-transformed integrals.
	First half integral transformation complete.
	Starting AA second half-transformation.
	Starting AB second half-transformation.
	Starting BB second half-transformation.
	Two-electron integral transformation complete.
	(OO|OV)...
	Starting AA second half-transformation.
	Starting AB second half-transformation.
	Starting BB second half-transformation.
	Two-electron integral transformation complete.
	(OO|VV)...
	Starting AA second half-transformation.
	Starting AB second half-transformation.
	Starting BB second half-transformation.
	Two-electron integral transformation complete.
	(OV|OO)...
	Starting AA/AB first half-transformation.
	Sorting AA/AB half-transformed integrals.
	Starting BB first half-transformation.
	Sorting BB half-transformed integrals.
	First half integral transformation complete.
	Starting AA second half-transformation.
	Starting AB second half-transformation.
	Starting BB second half-transformation.
	Two-electron integral transformation complete.
	(OV|OV)...
	Starting AA second half-transformation.
	Starting AB second half-transformation.
	Starting BB second half-transformation.
	Two-electron integral transformation complete.
	(OV|VV)...
	Starting AA second half-transformation.
	Starting AB second half-transformation.
	Starting BB second half-transformation.
	Two-electron integral transformation complete.
	(VV|OO)...
	Starting AA/AB first half-transformation.
	Sorting AA/AB half-transformed integrals.
	Starting BB first half-transformation.
	Sorting BB half-transformed integrals.
	First half integral transformation complete.
	Starting AA second half-transformation.
	Starting AB second half-transformation.
	Starting BB second half-transformation.
	Two-electron integral transformation complete.
	(VV|OV)...
	Starting AA second half-transformation.
	Starting AB second half-transformation.
	Starting BB second half-transformation.
	Two-electron integral transformation complete.
	(VV|VV)...
	Starting AA second half-transformation.
	Starting AB second half-transformation.
	Starting BB second half-transformation.
	Two-electron integral transformation complete.
	Frozen core energy     =   -125.45547266610065

	Size of irrep 0 of <AB|CD> integrals:      5.040 (MW) /     40.320 (MB)
	Size of irrep 1 of <AB|CD> integrals:      3.197 (MW) /     25.576 (MB)
	Size of irrep 2 of <AB|CD> integrals:      3.640 (MW) /     29.124 (MB)
	Size of irrep 3 of <AB|CD> integrals:      4.783 (MW) /     38.264 (MB)
	Total:                                    16.660 (MW) /    133.283 (MB)

	Size of irrep 0 of <ab|cd> integrals:      5.327 (MW) /     42.615 (MB)
	Size of irrep 1 of <ab|cd> integrals:      3.430 (MW) /     27.439 (MB)
	Size of irrep 2 of <ab|cd> integrals:      3.893 (MW) /     31.142 (MB)
	Size of irrep 3 of <ab|cd> integrals:      5.072 (MW) /     40.572 (MB)
	Total:                                    17.721 (MW) /    141.768 (MB)

	Size of irrep 0 of <Ab|Cd> integrals:     21.912 (MW) /    175.294 (MB)
	Size of irrep 1 of <Ab|Cd> integrals:     13.242 (MW) /    105.939 (MB)
	Size of irrep 2 of <Ab|Cd> integrals:     15.062 (MW) /    120.497 (MB)
	Size of irrep 3 of <Ab|Cd> integrals:     19.705 (MW) /    157.638 (MB)
	Total:                                    69.921 (MW) /    559.368 (MB)

	Size of irrep 0 of <IA|BC> integrals:      1.469 (MW) /     11.748 (MB)
	Size of irrep 1 of <IA|BC> integrals:      0.694 (MW) /      5.550 (MB)
	Size of irrep 2 of <IA|BC> integrals:      0.908 (MW) /      7.266 (MB)
	Size of irrep 3 of <IA|BC> integrals:      1.198 (MW) /      9.588 (MB)
	Total:                                     4.269 (MW) /     34.152 (MB)

	Size of irrep 0 of <ia|bc> integrals:      1.220 (MW) /      9.758 (MB)
	Size of irrep 1 of <ia|bc> integrals:      0.493 (MW) /      3.941 (MB)
	Size of irrep 2 of <ia|bc> integrals:      0.698 (MW) /      5.588 (MB)
	Size of irrep 3 of <ia|bc> integrals:      0.959 (MW) /      7.675 (MB)
	Total:                                     3.370 (MW) /     26.961 (MB)

	Size of irrep 0 of <Ia|Bc> integrals:      1.507 (MW) /     12.058 (MB)
	Size of irrep 1 of <Ia|Bc> integrals:      0.721 (MW) /      5.764 (MB)
	Size of irrep 2 of <Ia|Bc> integrals:      0.939 (MW) /      7.514 (MB)
	Size of irrep 3 of <Ia|Bc> integrals:      1.234 (MW) /      9.872 (MB)
	Total:                                     4.401 (MW) /     35.208 (MB)

	Size of irrep 0 of <iA|bC> integrals:      1.194 (MW) /      9.549 (MB)
	Size of irrep 1 of <iA|bC> integrals:      0.477 (MW) /      3.814 (MB)
	Size of irrep 2 of <iA|bC> integrals:      0.671 (MW) /      5.371 (MB)
	Size of irrep 3 of <iA|bC> integrals:      0.928 (MW) /      7.422 (MB)
	Total:                                     3.270 (MW) /     26.156 (MB)

	Size of irrep 0 of tIjAb amplitudes:       0.094 (MW) /      0.749 (MB)
	Size of irrep 1 of tIjAb amplitudes:       0.015 (MW) /      0.116 (MB)
	Size of irrep 2 of tIjAb amplitudes:       0.047 (MW) /      0.373 (MB)
	Size of irrep 3 of tIjAb amplitudes:       0.053 (MW) /      0.426 (MB)
	Total:                                     0.208 (MW) /      1.664 (MB)

	Nuclear Rep. energy          =     21.91947198699274
	SCF energy                   =   -150.87353755185950
	One-electron energy          =    -83.22791464484982
	Two-electron (AA) energy     =      9.94409073681963
	Two-electron (BB) energy     =      5.29162389252526
	Two-electron (AB) energy     =     20.65466314275220
	Two-electron energy          =     35.89037777209710
	Reference energy             =   -150.87353755186064

*** tstop() called on b1-18.compute.lan at Wed Mar 10 09:55:10 2021
Module time:
	user time   =     229.57 seconds =       3.83 minutes
	system time =      14.28 seconds =       0.24 minutes
	total time  =         32 seconds =       0.53 minutes
Total time:
	user time   =     284.24 seconds =       4.74 minutes
	system time =      16.00 seconds =       0.27 minutes
	total time  =         40 seconds =       0.67 minutes
            **************************
            *                        *
            *        CCENERGY        *
            *                        *
            **************************

    Nuclear Rep. energy (wfn)     =   21.919471986992740
    SCF energy          (wfn)     = -150.873537551859499
    Reference energy    (file100) = -150.873537551860636

    Input parameters:
    -----------------
    Wave function   =     CCSD_T
    Reference wfn   =     UHF
    Brueckner       =     No
    Memory (Mbytes) =     4000.0
    Maxiter         =     50
    R_Convergence   =     1.0e-10
    E_Convergence   =     1.0e-10
    Restart         =     Yes
    DIIS            =     Yes
    AO Basis        =     NONE
    ABCD            =     NEW
    Cache Level     =     2
    Cache Type      =     LRU
    Print Level     =     1
    Num. of threads =     12
    # Amps to Print =     10
    Print MP2 Amps? =     No
    Analyze T2 Amps =     No
    Print Pair Ener =     No
    Local CC        =     No
    SCS-MP2         =     False
    SCSN-MP2        =     False
    SCS-CCSD        =     False

MP2 correlation energy -0.4157793069686517
                Solving CC Amplitude Equations
                ------------------------------
  Iter             Energy              RMS        T1Diag      D1Diag    New D1Diag    D2Diag
  ----     ---------------------    ---------   ----------  ----------  ----------   --------
     0        -0.415779306968652    0.000e+00    0.000000    0.000000    0.000000    0.000000
     1        -0.426618487836332    5.643e-02    0.010370    0.000000    0.000000    0.000000
     2        -0.434715096181409    1.681e-02    0.010871    0.000000    0.000000    0.000000
     3        -0.436816759560860    8.417e-03    0.012689    0.000000    0.000000    0.000000
     4        -0.436692795136340    2.493e-03    0.013033    0.000000    0.000000    0.000000
     5        -0.436680750066525    1.259e-03    0.013175    0.000000    0.000000    0.000000
     6        -0.436706185749176    4.986e-04    0.013189    0.000000    0.000000    0.000000
     7        -0.436710313874868    2.248e-04    0.013179    0.000000    0.000000    0.000000
     8        -0.436711067419081    6.830e-05    0.013173    0.000000    0.000000    0.000000
     9        -0.436712285209375    2.789e-05    0.013172    0.000000    0.000000    0.000000
    10        -0.436711111905042    1.055e-05    0.013172    0.000000    0.000000    0.000000
    11        -0.436711222554478    5.203e-06    0.013172    0.000000    0.000000    0.000000
    12        -0.436711183117528    2.531e-06    0.013172    0.000000    0.000000    0.000000
    13        -0.436711176537973    1.358e-06    0.013172    0.000000    0.000000    0.000000
    14        -0.436711203335118    6.380e-07    0.013172    0.000000    0.000000    0.000000
    15        -0.436711201914546    1.726e-07    0.013172    0.000000    0.000000    0.000000
    16        -0.436711201782396    1.054e-07    0.013172    0.000000    0.000000    0.000000
    17        -0.436711202582988    2.985e-08    0.013172    0.000000    0.000000    0.000000
    18        -0.436711202163042    1.375e-08    0.013172    0.000000    0.000000    0.000000

      * MP2 total energy                      = -151.289316858829295
      * CCSD total energy                     = -151.310248753750813
      * CCSD(T) total energy                     = -151.322473892265748
*** Psi4 exiting successfully. Buy a developer a beer!
