                               Psi4 1.3.2 release

  ==> Input File <==

--------------------------------------------------------------------------
memory 4 GB

molecule  {
0 3
O    0.000000000000    0.000000000000   -1.261379187475
H    0.000000000000   -0.762389765100   -0.673409392393
H   -0.000000000000    0.762389765100   -0.673409392393
O    0.000000000000    0.000000000000    1.346241014966
}
set {
basis aug-cc-pvtz
reference uhf
e_convergence 10
scf_type pk
freeze_core true
}

set ccenergy {
e_convergence 10
r_convergence 10
}

e = energy('ccsd(t)')

print_out('Stephenergy {}'.format(e))

--------------------------------------------------------------------------

    Molecular point group: c2v

    Geometry (in Angstrom), charge = 0, multiplicity = 3:

       Center              X                  Y                   Z               Mass
    ------------   -----------------  -----------------  -----------------  -----------------
         O           -0.000000000000     0.000000000000    -1.261379187475    15.994914619570
         H            0.000000000000    -0.762389765100    -0.673409392393     1.007825032230
         H           -0.000000000000     0.762389765100    -0.673409392393     1.007825032230
         O           -0.000000000000     0.000000000000     1.346241014966    15.994914619570

  Charge       = 0
  Multiplicity = 3
  Basis Set: AUG-CC-PVTZ
    Blend: AUG-CC-PVTZ

    Orbital Energies [Eh]
    ---------------------

    Alpha Occupied:

       1A1   -20.734737     2A1   -20.567822     3A1    -1.448124
       4A1    -1.353595     5A1    -0.746113     1B1    -0.736316
       1B2    -0.718774     2B2    -0.636269     6A1    -0.581177
       2B1    -0.511077

    Alpha Virtual:

       7A1     0.036752     3B2     0.050205     8A1     0.119859
       3B1     0.130677     9A1     0.155616     4B2     0.166312
       4B1     0.189614     5B2     0.190617    10A1     0.192338
       1A2     0.263392    11A1     0.263975     6B2     0.274245
      12A1     0.289437     5B1     0.335643     7B2     0.393733
      13A1     0.403908    14A1     0.453297     8B2     0.475058
       9B2     0.632342     2A2     0.644385     6B1     0.650835
      15A1     0.659267    16A1     0.678433    17A1     0.709863
       3A2     0.723380    18A1     0.735051    10B2     0.766334
       7B1     0.789884     8B1     0.838267    19A1     0.881890
      11B2     0.886930     9B1     0.921620    12B2     0.942609
      20A1     0.979237     4A2     0.980499    21A1     1.024804
      10B1     1.027330    13B2     1.057430    22A1     1.092690
      14B2     1.123021    23A1     1.139710     5A2     1.207031
      11B1     1.219037    24A1     1.238734    15B2     1.250603
      16B2     1.437423     6A2     1.510414    25A1     1.563928
      12B1     1.582576    17B2     1.759238    26A1     1.803790
      27A1     1.848522    18B2     1.950103    13B1     2.004521
      28A1     2.029952    14B1     2.037055     7A2     2.073939
      19B2     2.075505    29A1     2.088034    30A1     2.167273
      15B1     2.169300     8A2     2.177965    20B2     2.204438
      31A1     2.204822     9A2     2.373024    32A1     2.378742
      16B1     2.423410    21B2     2.437698    33A1     2.460078
      17B1     2.509643    22B2     2.520749    34A1     2.537535
      35A1     2.730898    18B1     2.732158    23B2     2.749067
      10A2     2.882031    36A1     2.891026    24B2     2.939576
      25B2     3.678328    37A1     3.815368    11A2     4.032400
      19B1     4.074928    20B1     4.108980    38A1     4.209457
      26B2     4.229238    21B1     4.311448    27B2     4.312813
      12A2     4.380693    22B1     4.442053    39A1     4.451783
      40A1     4.583567    28B2     4.652528    41A1     4.745298
      29B2     4.893567    30B2     5.150718    13A2     5.152965
      31B2     5.274918    42A1     5.363375    23B1     5.512539
      43A1     5.693864    44A1     6.219901    24B1     6.390580
      32B2     6.398757    25B1     6.422644    14A2     6.442471
      45A1     6.462096    33B2     6.530579    46A1     6.585272
      34B2     6.698969    26B1     6.767374    27B1     6.879691
      47A1     6.882300    15A2     6.894757    48A1     6.961497
      49A1     6.981619    35B2     7.006141    28B1     7.166655
      29B1     7.258343    16A2     7.306516    17A2     7.358629
      50A1     7.372919    36B2     7.376025    51A1     7.586507
      37B2     7.941519    52A1     7.981822    38B2     8.792279
      53A1     9.740719    54A1    15.756503

    Beta Occupied:

       1A1   -20.655880     2A1   -20.566450     3A1    -1.350693
       4A1    -1.104476     1B2    -0.717054     5A1    -0.580679
       2B2    -0.546873     1B1    -0.509083

    Beta Virtual:

       6A1     0.037541     2B1     0.046605     3B2     0.050556
       7A1     0.052582     8A1     0.142009     3B1     0.159875
       4B2     0.168282     9A1     0.182393     5B2     0.192880
      10A1     0.193916     4B1     0.226612     1A2     0.263675
      11A1     0.267493     6B2     0.274562    12A1     0.297334
       5B1     0.343665     7B2     0.395956    13A1     0.431711
      14A1     0.457432     8B2     0.475184     9B2     0.632034
       2A2     0.658649     6B1     0.669877    15A1     0.673818
      16A1     0.702681    17A1     0.711891     3A2     0.723731
      10B2     0.782342    18A1     0.791677     7B1     0.818003
      19A1     0.891694    11B2     0.901063     8B1     0.917970
       9B1     0.935032    12B2     0.946416     4A2     0.982463
      20A1     0.984823    21A1     1.034401    10B1     1.057540
      13B2     1.058291    22A1     1.112983    14B2     1.131866
      23A1     1.204569     5A2     1.208178    11B1     1.241007
      24A1     1.250685    15B2     1.250931    16B2     1.443525
       6A2     1.510641    12B1     1.583389    25A1     1.584366
      17B2     1.763452    26A1     1.812575    27A1     1.886626
      18B2     1.953239    13B1     2.027998    28A1     2.088229
      19B2     2.090033    14B1     2.103350    29A1     2.137010
       7A2     2.141415     8A2     2.209576    30A1     2.229889
      31A1     2.235849    15B1     2.253365    20B2     2.274350
       9A2     2.381093    32A1     2.414337    16B1     2.453156
      21B2     2.455451    33A1     2.478712    17B1     2.510480
      22B2     2.528521    34A1     2.549923    18B1     2.733226
      35A1     2.743794    23B2     2.752526    10A2     2.882410
      36A1     2.898645    24B2     2.941275    25B2     3.678952
      37A1     3.825644    11A2     4.032039    19B1     4.108719
      20B1     4.228622    38A1     4.243166    26B2     4.247308
      21B1     4.324754    27B2     4.337878    12A2     4.380368
      22B1     4.446491    39A1     4.482423    28B2     4.655110
      40A1     4.671720    41A1     4.747373    29B2     4.895080
      30B2     5.151992    13A2     5.153190    31B2     5.276004
      42A1     5.365831    23B1     5.512982    43A1     5.695526
      44A1     6.225693    24B1     6.447745    32B2     6.456747
      14A2     6.518573    25B1     6.529350    33B2     6.534234
      45A1     6.537912    46A1     6.663315    34B2     6.762380
      26B1     6.769353    47A1     6.958458    15A2     7.007513
      48A1     7.015953    27B1     7.063331    35B2     7.115111
      49A1     7.119166    28B1     7.169844    29B1     7.261443
      16A2     7.307667    17A2     7.359729    36B2     7.376912
      50A1     7.381286    51A1     7.592280    37B2     7.942979
      52A1     7.984907    38B2     8.794174    53A1     9.812529
      54A1    15.757455

    Final Occupation by Irrep:
             A1    A2    B1    B2
    DOCC [     5,    0,    1,    2 ]
    SOCC [     1,    0,    1,    0 ]

  @UHF Final Energy:  -150.86759915871826

   => Energetics <=

    Nuclear Repulsion Energy =             26.0511250897698652
    One-Electron Energy =                -259.7722566078774662
    Two-Electron Energy =                  82.8535323593893338
    Total Energy =                       -150.8675991587182637

  UHF NO Occupations:
  HONO-2 :    5 A1 1.9970621
  HONO-1 :    6 A1 1.0000000
  HONO-0 :    2 B1 1.0000000
  LUNO+0 :    7 A1 0.0029379
  LUNO+1 :    3 B2 0.0017485
  LUNO+2 :    8 A1 0.0002138
  LUNO+3 :    3 B1 0.0000124

Computation Completed

Properties will be evaluated at   0.000000,   0.000000,   0.000000 [a0]

Properties computed using the SCF density matrix

  Nuclear Dipole Moment: [e a0]
     X:    -0.0000      Y:     0.0000      Z:    -1.2622

  Electronic Dipole Moment: [e a0]
     X:     0.0000      Y:     0.0000      Z:     2.0772

  Dipole Moment: [e a0]
     X:    -0.0000      Y:     0.0000      Z:     0.8150     Total:     0.8150

  Dipole Moment: [D]
     X:    -0.0000      Y:     0.0000      Z:     2.0714     Total:     2.0714

*** tstop() called on c5-3.compute.lan at Wed Mar 10 09:16:32 2021
Module time:
	user time   =      56.64 seconds =       0.94 minutes
	system time =       1.50 seconds =       0.03 minutes
	total time  =          6 seconds =       0.10 minutes
Total time:
	user time   =      56.64 seconds =       0.94 minutes
	system time =       1.50 seconds =       0.03 minutes
	total time  =          6 seconds =       0.10 minutes
 MINTS: Wrapper to libmints.
   by Justin Turney

   Calculation information:
      Number of threads:                12
      Number of atoms:                   4
      Number of AO shells:              46
      Number of SO shells:              37
      Number of primitives:             82
      Number of atomic orbitals:       160
      Number of basis functions:       138

      Number of irreps:                  4
      Integral cutoff                 0.00e+00
      Number of functions per irrep: [  54   17   29   38 ]

 OEINTS: Overlap, kinetic, potential, dipole, and quadrupole integrals
         stored in file 35.

      Computing two-electron integrals...done
      Computed 11511381 non-zero two-electron integrals.
        Stored in file 33.

*** tstart() called on c5-3.compute.lan
*** at Wed Mar 10 09:16:35 2021

	Wfn Parameters:
	--------------------
	Wavefunction         = CCSD_T
	Number of irreps     = 4
	Number of MOs        = 138
	Number of active MOs = 136
	AO-Basis             = NONE
	Semicanonical        = false
	Reference            = UHF
	Print Level          = 1

	IRREP	# MOs	# FZDC	# DOCC	# SOCC	# VIRT	# FZVR
	-----	-----	------	------	------	------	------
	 A1	   54	    2	    3	    1	    48	    0
	 A2	   17	    0	    0	    0	    17	    0
	 B1	   29	    0	    1	    1	    27	    0
	 B2	   38	    0	    2	    0	    36	    0
	Transforming integrals...
	IWL integrals will be deleted.
	(OO|OO)...
	Presorting SO-basis two-electron integrals.
	Sorting File: SO Ints (nn|nn) nbuckets = 1
	Transforming the one-electron integrals and constructing Fock matrices
	Starting AA/AB first half-transformation.
	Sorting AA/AB half-transformed integrals.
	Starting BB first half-transformation.
	Sorting BB half-transformed integrals.
	First half integral transformation complete.
	Starting AA second half-transformation.
	Starting AB second half-transformation.
	Starting BB second half-transformation.
	Two-electron integral transformation complete.
	(OO|OV)...
	Starting AA second half-transformation.
	Starting AB second half-transformation.
	Starting BB second half-transformation.
	Two-electron integral transformation complete.
	(OO|VV)...
	Starting AA second half-transformation.
	Starting AB second half-transformation.
	Starting BB second half-transformation.
	Two-electron integral transformation complete.
	(OV|OO)...
	Starting AA/AB first half-transformation.
	Sorting AA/AB half-transformed integrals.
	Starting BB first half-transformation.
	Sorting BB half-transformed integrals.
	First half integral transformation complete.
	Starting AA second half-transformation.
	Starting AB second half-transformation.
	Starting BB second half-transformation.
	Two-electron integral transformation complete.
	(OV|OV)...
	Starting AA second half-transformation.
	Starting AB second half-transformation.
	Starting BB second half-transformation.
	Two-electron integral transformation complete.
	(OV|VV)...
	Starting AA second half-transformation.
	Starting AB second half-transformation.
	Starting BB second half-transformation.
	Two-electron integral transformation complete.
	(VV|OO)...
	Starting AA/AB first half-transformation.
	Sorting AA/AB half-transformed integrals.
	Starting BB first half-transformation.
	Sorting BB half-transformed integrals.
	First half integral transformation complete.
	Starting AA second half-transformation.
	Starting AB second half-transformation.
	Starting BB second half-transformation.
	Two-electron integral transformation complete.
	(VV|OV)...
	Starting AA second half-transformation.
	Starting AB second half-transformation.
	Starting BB second half-transformation.
	Two-electron integral transformation complete.
	(VV|VV)...
	Starting AA second half-transformation.
	Starting AB second half-transformation.
	Starting BB second half-transformation.
	Two-electron integral transformation complete.
	Frozen core energy     =   -127.07228897986589

	Size of irrep 0 of <AB|CD> integrals:      5.040 (MW) /     40.320 (MB)
	Size of irrep 1 of <AB|CD> integrals:      3.197 (MW) /     25.576 (MB)
	Size of irrep 2 of <AB|CD> integrals:      3.640 (MW) /     29.124 (MB)
	Size of irrep 3 of <AB|CD> integrals:      4.783 (MW) /     38.264 (MB)
	Total:                                    16.660 (MW) /    133.283 (MB)

	Size of irrep 0 of <ab|cd> integrals:      5.382 (MW) /     43.059 (MB)
	Size of irrep 1 of <ab|cd> integrals:      3.389 (MW) /     27.114 (MB)
	Size of irrep 2 of <ab|cd> integrals:      3.936 (MW) /     31.490 (MB)
	Size of irrep 3 of <ab|cd> integrals:      5.018 (MW) /     40.141 (MB)
	Total:                                    17.726 (MW) /    141.804 (MB)

	Size of irrep 0 of <Ab|Cd> integrals:     22.024 (MW) /    176.194 (MB)
	Size of irrep 1 of <Ab|Cd> integrals:     13.170 (MW) /    105.357 (MB)
	Size of irrep 2 of <Ab|Cd> integrals:     15.140 (MW) /    121.119 (MB)
	Size of irrep 3 of <Ab|Cd> integrals:     19.598 (MW) /    156.787 (MB)
	Total:                                    69.932 (MW) /    559.457 (MB)

	Size of irrep 0 of <IA|BC> integrals:      1.469 (MW) /     11.748 (MB)
	Size of irrep 1 of <IA|BC> integrals:      0.694 (MW) /      5.550 (MB)
	Size of irrep 2 of <IA|BC> integrals:      0.908 (MW) /      7.266 (MB)
	Size of irrep 3 of <IA|BC> integrals:      1.198 (MW) /      9.588 (MB)
	Total:                                     4.269 (MW) /     34.152 (MB)

	Size of irrep 0 of <ia|bc> integrals:      1.178 (MW) /      9.426 (MB)
	Size of irrep 1 of <ia|bc> integrals:      0.527 (MW) /      4.212 (MB)
	Size of irrep 2 of <ia|bc> integrals:      0.663 (MW) /      5.301 (MB)
	Size of irrep 3 of <ia|bc> integrals:      0.999 (MW) /      7.992 (MB)
	Total:                                     3.366 (MW) /     26.931 (MB)

	Size of irrep 0 of <Ia|Bc> integrals:      1.521 (MW) /     12.164 (MB)
	Size of irrep 1 of <Ia|Bc> integrals:      0.711 (MW) /      5.690 (MB)
	Size of irrep 2 of <Ia|Bc> integrals:      0.949 (MW) /      7.595 (MB)
	Size of irrep 3 of <Ia|Bc> integrals:      1.222 (MW) /      9.775 (MB)
	Total:                                     4.403 (MW) /     35.225 (MB)

	Size of irrep 0 of <iA|bC> integrals:      1.140 (MW) /      9.123 (MB)
	Size of irrep 1 of <iA|bC> integrals:      0.512 (MW) /      4.094 (MB)
	Size of irrep 2 of <iA|bC> integrals:      0.634 (MW) /      5.074 (MB)
	Size of irrep 3 of <iA|bC> integrals:      0.978 (MW) /      7.827 (MB)
	Total:                                     3.265 (MW) /     26.118 (MB)

	Size of irrep 0 of tIjAb amplitudes:       0.084 (MW) /      0.676 (MB)
	Size of irrep 1 of tIjAb amplitudes:       0.022 (MW) /      0.174 (MB)
	Size of irrep 2 of tIjAb amplitudes:       0.039 (MW) /      0.311 (MB)
	Size of irrep 3 of tIjAb amplitudes:       0.062 (MW) /      0.496 (MB)
	Total:                                     0.207 (MW) /      1.657 (MB)

	Nuclear Rep. energy          =     26.05112508976987
	SCF energy                   =   -150.86759915871826
	One-electron energy          =    -88.15256721103935
	Two-electron (AA) energy     =     10.77713708898230
	Two-electron (BB) energy     =      5.66088736526547
	Two-electron (AB) energy     =     21.86810748816767
	Two-electron energy          =     38.30613194241545
	Reference energy             =   -150.86759915871994

*** tstop() called on c5-3.compute.lan at Wed Mar 10 09:17:02 2021
Module time:
	user time   =      66.56 seconds =       1.11 minutes
	system time =      13.65 seconds =       0.23 minutes
	total time  =         27 seconds =       0.45 minutes
Total time:
	user time   =     128.59 seconds =       2.14 minutes
	system time =      15.56 seconds =       0.26 minutes
	total time  =         36 seconds =       0.60 minutes
            **************************
            *                        *
            *        CCENERGY        *
            *                        *
            **************************

    Nuclear Rep. energy (wfn)     =   26.051125089769865
    SCF energy          (wfn)     = -150.867599158718264
    Reference energy    (file100) = -150.867599158719941

    Input parameters:
    -----------------
    Wave function   =     CCSD_T
    Reference wfn   =     UHF
    Brueckner       =     No
    Memory (Mbytes) =     4000.0
    Maxiter         =     50
    R_Convergence   =     1.0e-10
    E_Convergence   =     1.0e-10
    Restart         =     Yes
    DIIS            =     Yes
    AO Basis        =     NONE
    ABCD            =     NEW
    Cache Level     =     2
    Cache Type      =     LRU
    Print Level     =     1
    Num. of threads =     12
    # Amps to Print =     10
    Print MP2 Amps? =     No
    Analyze T2 Amps =     No
    Print Pair Ener =     No
    Local CC        =     No
    SCS-MP2         =     False
    SCSN-MP2        =     False
    SCS-CCSD        =     False

MP2 correlation energy -0.4185325695602080
                Solving CC Amplitude Equations
                ------------------------------
  Iter             Energy              RMS        T1Diag      D1Diag    New D1Diag    D2Diag
  ----     ---------------------    ---------   ----------  ----------  ----------   --------
     0        -0.418532569560208    0.000e+00    0.000000    0.000000    0.000000    0.000000
     1        -0.429115436082673    6.042e-02    0.011845    0.000000    0.000000    0.000000
     2        -0.437423615311450    1.830e-02    0.012517    0.000000    0.000000    0.000000
     3        -0.439721159923408    1.179e-02    0.015206    0.000000    0.000000    0.000000
     4        -0.439661328633269    4.362e-03    0.016328    0.000000    0.000000    0.000000
     5        -0.439623509208425    2.985e-03    0.017090    0.000000    0.000000    0.000000
     6        -0.439689267337724    1.162e-03    0.017452    0.000000    0.000000    0.000000
     7        -0.439698917932796    5.462e-04    0.017547    0.000000    0.000000    0.000000
     8        -0.439698100711454    2.010e-04    0.017589    0.000000    0.000000    0.000000
     9        -0.439701379219928    1.061e-04    0.017595    0.000000    0.000000    0.000000
    10        -0.439696420720504    5.555e-05    0.017608    0.000000    0.000000    0.000000
    11        -0.439696904222589    2.598e-05    0.017608    0.000000    0.000000    0.000000
    12        -0.439696724063682    1.022e-05    0.017610    0.000000    0.000000    0.000000
    13        -0.439696882407611    5.262e-06    0.017609    0.000000    0.000000    0.000000
    14        -0.439697071769741    2.151e-06    0.017609    0.000000    0.000000    0.000000
    15        -0.439697077466778    9.759e-07    0.017609    0.000000    0.000000    0.000000
    16        -0.439697081299237    4.273e-07    0.017609    0.000000    0.000000    0.000000
    17        -0.439697082821661    1.449e-07    0.017609    0.000000    0.000000    0.000000
    18        -0.439697080555335    7.351e-08    0.017609    0.000000    0.000000    0.000000

      * MP2 total energy                      = -151.286131728280139
      * CCSD total energy                     = -151.307296239124298
      * CCSD(T) total energy                     = -151.320074346968141
*** Psi4 exiting successfully. Buy a developer a beer!
