                               Psi4 1.3.2 release

  ==> Input File <==

--------------------------------------------------------------------------
memory 4 GB

molecule  {
0 3
O    0.000000000000    0.000000000000   -1.548221819200
H    0.000000000000   -0.752326346800   -0.943717355300
H   -0.000000000000    0.752326346800   -0.943717355300
O    0.000000000000    0.000000000000    1.667147364900
}
set {
basis aug-cc-pvtz
reference uhf
e_convergence 10
scf_type pk
freeze_core true
}

set ccenergy {
e_convergence 10
r_convergence 10
}

e = energy('ccsd(t)')

print_out('Stephenergy {}'.format(e))

--------------------------------------------------------------------------

    Molecular point group: c2v

    Geometry (in Angstrom), charge = 0, multiplicity = 3:

       Center              X                  Y                   Z               Mass
    ------------   -----------------  -----------------  -----------------  -----------------
         O            0.000000000000     0.000000000000    -1.548221819245    15.994914619570
         H            0.000000000000    -0.752326346800    -0.943717355345     1.007825032230
         H           -0.000000000000     0.752326346800    -0.943717355345     1.007825032230
         O            0.000000000000     0.000000000000     1.667147364855    15.994914619570

  Charge       = 0
  Multiplicity = 3
  Basis Set: AUG-CC-PVTZ
    Blend: AUG-CC-PVTZ

    Orbital Energies [Eh]
    ---------------------

    Alpha Occupied:

       1A1   -20.731099     2A1   -20.562484     3A1    -1.440492
       4A1    -1.344567     1B2    -0.731940     1B1    -0.731313
       2B2    -0.703122     5A1    -0.636461     6A1    -0.578726
       2B1    -0.504055

    Alpha Virtual:

       7A1     0.035794     3B2     0.048608     3B1     0.131482
       8A1     0.132900     9A1     0.150520     4B2     0.158807
       4B1     0.183745     5B2     0.185505    10A1     0.190361
      11A1     0.258119     6B2     0.260948     1A2     0.265976
      12A1     0.274657     5B1     0.323165    13A1     0.376458
       7B2     0.384509    14A1     0.453913     8B2     0.473092
       2A2     0.610376    15A1     0.624013     9B2     0.624181
      16A1     0.631294     6B1     0.646287    17A1     0.717179
       3A2     0.731844    10B2     0.743754     7B1     0.752750
      18A1     0.793283     8B1     0.832769    11B2     0.850308
      19A1     0.850779     9B1     0.918427     4A2     0.941055
      12B2     0.942599    20A1     0.957609    21A1     0.964858
      10B1     0.982071    13B2     0.990100    22A1     1.053210
      14B2     1.057239    11B1     1.144225     5A2     1.190213
      23A1     1.195179    24A1     1.255232    15B2     1.272485
      16B2     1.302226    25A1     1.392562     6A2     1.509285
      12B1     1.586898    26A1     1.697456    27A1     1.835613
      17B2     1.842024    18B2     1.965898    13B1     1.976995
      19B2     2.000466    28A1     2.005397     7A2     2.015693
      14B1     2.032810    29A1     2.040835     8A2     2.056187
      30A1     2.092412    20B2     2.100292    15B1     2.139150
      31A1     2.181918    16B1     2.294541    21B2     2.304554
       9A2     2.336677    32A1     2.386207    33A1     2.400587
      34A1     2.485614    22B2     2.511958    17B1     2.535919
      35A1     2.588931    23B2     2.695237    18B1     2.724002
      36A1     2.830912    10A2     2.889122    24B2     2.908620
      25B2     3.667234    37A1     3.741947    11A2     4.038314
      19B1     4.052455    26B2     4.104121    20B1     4.106082
      38A1     4.192020    21B1     4.271200    27B2     4.277045
      39A1     4.334127    12A2     4.384101    22B1     4.417865
      40A1     4.468353    28B2     4.535299    41A1     4.757557
      29B2     4.852060    13A2     5.139463    30B2     5.172221
      31B2     5.237738    42A1     5.362942    23B1     5.522231
      43A1     5.664060    44A1     6.204602    24B1     6.313379
      32B2     6.315157    14A2     6.378539    45A1     6.388112
      25B1     6.411757    33B2     6.479415    46A1     6.501419
      34B2     6.535870    26B1     6.756536    15A2     6.820545
      47A1     6.822459    48A1     6.934296    27B1     6.936983
      35B2     6.972437    49A1     7.037841    28B1     7.134405
      29B1     7.261579    16A2     7.313588    36B2     7.339691
      17A2     7.357567    50A1     7.375694    51A1     7.547708
      52A1     7.886022    37B2     7.936116    53A1     8.670879
      38B2     8.803602    54A1    15.647143

    Beta Occupied:

       1A1   -20.652575     2A1   -20.562544     3A1    -1.344882
       4A1    -1.098327     1B2    -0.703383     5A1    -0.586959
       6A1    -0.538999     1B1    -0.504018

    Beta Virtual:

       2B2     0.033921     7A1     0.037006     2B1     0.048353
       3B2     0.069535     8A1     0.138728     9A1     0.153022
       3B1     0.161056     4B2     0.180078    10A1     0.190741
       5B2     0.224776     4B1     0.225769     6B2     0.264359
       1A2     0.266451    11A1     0.266859    12A1     0.277243
       5B1     0.324412    13A1     0.379981     7B2     0.391485
      14A1     0.455399     8B2     0.473570     9B2     0.625996
      15A1     0.633347     2A2     0.642374    16A1     0.656555
       6B1     0.657299    17A1     0.718271     3A2     0.733102
       7B1     0.756102    10B2     0.756226    18A1     0.807384
      19A1     0.856528     8B1     0.910944     9B1     0.935808
      11B2     0.940509     4A2     0.943219    12B2     0.949975
      20A1     0.960332    21A1     0.969483    13B2     1.024231
      10B1     1.033156    22A1     1.054412    14B2     1.063230
      11B1     1.153919     5A2     1.191146    23A1     1.199229
      15B2     1.272675    24A1     1.294029    16B2     1.320081
      25A1     1.424329     6A2     1.509524    12B1     1.587159
      26A1     1.715063    27A1     1.837949    17B2     1.843263
      18B2     1.976900    13B1     2.014704    19B2     2.027663
      28A1     2.030201    14B1     2.057018     7A2     2.058441
      29A1     2.101448    20B2     2.152673    30A1     2.180827
       8A2     2.184643    15B1     2.200726    31A1     2.223048
      16B1     2.302274    21B2     2.340952     9A2     2.341073
      32A1     2.390597    33A1     2.423465    34A1     2.487420
      22B2     2.518941    17B1     2.540842    35A1     2.591728
      23B2     2.695604    18B1     2.724151    36A1     2.831619
      10A2     2.889175    24B2     2.910452    25B2     3.667468
      37A1     3.742135    11A2     4.038445    19B1     4.102761
      38A1     4.202294    20B1     4.226943    26B2     4.255977
      21B1     4.271666    27B2     4.293355    39A1     4.347639
      12A2     4.384170    22B1     4.418426    40A1     4.491960
      28B2     4.536235    41A1     4.758186    29B2     4.852447
      13A2     5.139503    30B2     5.172246    31B2     5.237833
      42A1     5.363413    23B1     5.522234    43A1     5.664381
      44A1     6.208572    24B1     6.422117    32B2     6.423642
      14A2     6.455075    45A1     6.461602    25B1     6.466176
      33B2     6.506545    46A1     6.548488    34B2     6.565447
      26B1     6.763997    47A1     6.936335    15A2     7.009264
      48A1     7.012514    27B1     7.042799    35B2     7.081235
      49A1     7.115795    28B1     7.135473    29B1     7.261578
      16A2     7.313625    36B2     7.341035    17A2     7.357694
      50A1     7.377024    51A1     7.549137    52A1     7.886204
      37B2     7.936105    53A1     8.753550    38B2     8.803498
      54A1    15.647143

    Final Occupation by Irrep:
             A1    A2    B1    B2
    DOCC [     6,    0,    1,    1 ]
    SOCC [     0,    0,    1,    1 ]

  @UHF Final Energy:  -150.87265797773355

   => Energetics <=

    Nuclear Repulsion Energy =             22.7737854614352102
    One-Electron Energy =                -253.3369399458486271
    Two-Electron Energy =                  79.6904965066798638
    Total Energy =                       -150.8726579777335530

  UHF NO Occupations:
  HONO-2 :    6 A1 1.9970787
  HONO-1 :    2 B2 1.0000000
  HONO-0 :    2 B1 1.0000000
  LUNO+0 :    7 A1 0.0029213
  LUNO+1 :    8 A1 0.0016508
  LUNO+2 :    9 A1 0.0000024
  LUNO+3 :   10 A1 0.0000010

Computation Completed

Properties will be evaluated at   0.000000,   0.000000,   0.000000 [a0]

Properties computed using the SCF density matrix

  Nuclear Dipole Moment: [e a0]
     X:     0.0000      Y:     0.0000      Z:    -1.7688

  Electronic Dipole Moment: [e a0]
     X:     0.0000      Y:     0.0000      Z:     2.6188

  Dipole Moment: [e a0]
     X:     0.0000      Y:     0.0000      Z:     0.8500     Total:     0.8500

  Dipole Moment: [D]
     X:     0.0000      Y:     0.0000      Z:     2.1604     Total:     2.1604

*** tstop() called on b1-8.compute.lan at Wed Mar 10 09:34:24 2021
Module time:
	user time   =      36.57 seconds =       0.61 minutes
	system time =       0.94 seconds =       0.02 minutes
	total time  =          4 seconds =       0.07 minutes
Total time:
	user time   =      36.57 seconds =       0.61 minutes
	system time =       0.94 seconds =       0.02 minutes
	total time  =          4 seconds =       0.07 minutes
 MINTS: Wrapper to libmints.
   by Justin Turney

   Calculation information:
      Number of threads:                12
      Number of atoms:                   4
      Number of AO shells:              46
      Number of SO shells:              37
      Number of primitives:             82
      Number of atomic orbitals:       160
      Number of basis functions:       138

      Number of irreps:                  4
      Integral cutoff                 0.00e+00
      Number of functions per irrep: [  54   17   29   38 ]

 OEINTS: Overlap, kinetic, potential, dipole, and quadrupole integrals
         stored in file 35.

      Computing two-electron integrals...done
      Computed 11328275 non-zero two-electron integrals.
        Stored in file 33.

*** tstart() called on b1-8.compute.lan
*** at Wed Mar 10 09:34:26 2021

	Wfn Parameters:
	--------------------
	Wavefunction         = CCSD_T
	Number of irreps     = 4
	Number of MOs        = 138
	Number of active MOs = 136
	AO-Basis             = NONE
	Semicanonical        = false
	Reference            = UHF
	Print Level          = 1

	IRREP	# MOs	# FZDC	# DOCC	# SOCC	# VIRT	# FZVR
	-----	-----	------	------	------	------	------
	 A1	   54	    2	    4	    0	    48	    0
	 A2	   17	    0	    0	    0	    17	    0
	 B1	   29	    0	    1	    1	    27	    0
	 B2	   38	    0	    1	    1	    36	    0
	Transforming integrals...
	IWL integrals will be deleted.
	(OO|OO)...
	Presorting SO-basis two-electron integrals.
	Sorting File: SO Ints (nn|nn) nbuckets = 1
	Transforming the one-electron integrals and constructing Fock matrices
	Starting AA/AB first half-transformation.
	Sorting AA/AB half-transformed integrals.
	Starting BB first half-transformation.
	Sorting BB half-transformed integrals.
	First half integral transformation complete.
	Starting AA second half-transformation.
	Starting AB second half-transformation.
	Starting BB second half-transformation.
	Two-electron integral transformation complete.
	(OO|OV)...
	Starting AA second half-transformation.
	Starting AB second half-transformation.
	Starting BB second half-transformation.
	Two-electron integral transformation complete.
	(OO|VV)...
	Starting AA second half-transformation.
	Starting AB second half-transformation.
	Starting BB second half-transformation.
	Two-electron integral transformation complete.
	(OV|OO)...
	Starting AA/AB first half-transformation.
	Sorting AA/AB half-transformed integrals.
	Starting BB first half-transformation.
	Sorting BB half-transformed integrals.
	First half integral transformation complete.
	Starting AA second half-transformation.
	Starting AB second half-transformation.
	Starting BB second half-transformation.
	Two-electron integral transformation complete.
	(OV|OV)...
	Starting AA second half-transformation.
	Starting AB second half-transformation.
	Starting BB second half-transformation.
	Two-electron integral transformation complete.
	(OV|VV)...
	Starting AA second half-transformation.
	Starting AB second half-transformation.
	Starting BB second half-transformation.
	Two-electron integral transformation complete.
	(VV|OO)...
	Starting AA/AB first half-transformation.
	Sorting AA/AB half-transformed integrals.
	Starting BB first half-transformation.
	Sorting BB half-transformed integrals.
	First half integral transformation complete.
	Starting AA second half-transformation.
	Starting AB second half-transformation.
	Starting BB second half-transformation.
	Two-electron integral transformation complete.
	(VV|OV)...
	Starting AA second half-transformation.
	Starting AB second half-transformation.
	Starting BB second half-transformation.
	Two-electron integral transformation complete.
	(VV|VV)...
	Starting AA second half-transformation.
	Starting AB second half-transformation.
	Starting BB second half-transformation.
	Two-electron integral transformation complete.
	Frozen core energy     =   -125.79148250919096

	Size of irrep 0 of <AB|CD> integrals:      5.040 (MW) /     40.320 (MB)
	Size of irrep 1 of <AB|CD> integrals:      3.197 (MW) /     25.576 (MB)
	Size of irrep 2 of <AB|CD> integrals:      3.640 (MW) /     29.124 (MB)
	Size of irrep 3 of <AB|CD> integrals:      4.783 (MW) /     38.264 (MB)
	Total:                                    16.660 (MW) /    133.283 (MB)

	Size of irrep 0 of <ab|cd> integrals:      5.327 (MW) /     42.615 (MB)
	Size of irrep 1 of <ab|cd> integrals:      3.430 (MW) /     27.439 (MB)
	Size of irrep 2 of <ab|cd> integrals:      3.893 (MW) /     31.142 (MB)
	Size of irrep 3 of <ab|cd> integrals:      5.072 (MW) /     40.572 (MB)
	Total:                                    17.721 (MW) /    141.768 (MB)

	Size of irrep 0 of <Ab|Cd> integrals:     21.912 (MW) /    175.294 (MB)
	Size of irrep 1 of <Ab|Cd> integrals:     13.242 (MW) /    105.939 (MB)
	Size of irrep 2 of <Ab|Cd> integrals:     15.062 (MW) /    120.497 (MB)
	Size of irrep 3 of <Ab|Cd> integrals:     19.705 (MW) /    157.638 (MB)
	Total:                                    69.921 (MW) /    559.368 (MB)

	Size of irrep 0 of <IA|BC> integrals:      1.469 (MW) /     11.748 (MB)
	Size of irrep 1 of <IA|BC> integrals:      0.694 (MW) /      5.550 (MB)
	Size of irrep 2 of <IA|BC> integrals:      0.908 (MW) /      7.266 (MB)
	Size of irrep 3 of <IA|BC> integrals:      1.198 (MW) /      9.588 (MB)
	Total:                                     4.269 (MW) /     34.152 (MB)

	Size of irrep 0 of <ia|bc> integrals:      1.220 (MW) /      9.758 (MB)
	Size of irrep 1 of <ia|bc> integrals:      0.493 (MW) /      3.941 (MB)
	Size of irrep 2 of <ia|bc> integrals:      0.698 (MW) /      5.588 (MB)
	Size of irrep 3 of <ia|bc> integrals:      0.959 (MW) /      7.675 (MB)
	Total:                                     3.370 (MW) /     26.961 (MB)

	Size of irrep 0 of <Ia|Bc> integrals:      1.507 (MW) /     12.058 (MB)
	Size of irrep 1 of <Ia|Bc> integrals:      0.721 (MW) /      5.764 (MB)
	Size of irrep 2 of <Ia|Bc> integrals:      0.939 (MW) /      7.514 (MB)
	Size of irrep 3 of <Ia|Bc> integrals:      1.234 (MW) /      9.872 (MB)
	Total:                                     4.401 (MW) /     35.208 (MB)

	Size of irrep 0 of <iA|bC> integrals:      1.194 (MW) /      9.549 (MB)
	Size of irrep 1 of <iA|bC> integrals:      0.477 (MW) /      3.814 (MB)
	Size of irrep 2 of <iA|bC> integrals:      0.671 (MW) /      5.371 (MB)
	Size of irrep 3 of <iA|bC> integrals:      0.928 (MW) /      7.422 (MB)
	Total:                                     3.270 (MW) /     26.156 (MB)

	Size of irrep 0 of tIjAb amplitudes:       0.094 (MW) /      0.749 (MB)
	Size of irrep 1 of tIjAb amplitudes:       0.015 (MW) /      0.116 (MB)
	Size of irrep 2 of tIjAb amplitudes:       0.047 (MW) /      0.373 (MB)
	Size of irrep 3 of tIjAb amplitudes:       0.053 (MW) /      0.426 (MB)
	Total:                                     0.208 (MW) /      1.664 (MB)

	Nuclear Rep. energy          =     22.77378546143521
	SCF energy                   =   -150.87265797773355
	One-electron energy          =    -84.26267586561133
	Two-electron (AA) energy     =     10.11518751323235
	Two-electron (BB) energy     =      5.37954068595409
	Two-electron (AB) energy     =     20.91298673644537
	Two-electron energy          =     36.40771493563182
	Reference energy             =   -150.87265797773526

*** tstop() called on b1-8.compute.lan at Wed Mar 10 09:34:48 2021
Module time:
	user time   =     160.09 seconds =       2.67 minutes
	system time =       7.91 seconds =       0.13 minutes
	total time  =         22 seconds =       0.37 minutes
Total time:
	user time   =     202.00 seconds =       3.37 minutes
	system time =       9.13 seconds =       0.15 minutes
	total time  =         28 seconds =       0.47 minutes
            **************************
            *                        *
            *        CCENERGY        *
            *                        *
            **************************

    Nuclear Rep. energy (wfn)     =   22.773785461435210
    SCF energy          (wfn)     = -150.872657977733553
    Reference energy    (file100) = -150.872657977735258

    Input parameters:
    -----------------
    Wave function   =     CCSD_T
    Reference wfn   =     UHF
    Brueckner       =     No
    Memory (Mbytes) =     4000.0
    Maxiter         =     50
    R_Convergence   =     1.0e-10
    E_Convergence   =     1.0e-10
    Restart         =     Yes
    DIIS            =     Yes
    AO Basis        =     NONE
    ABCD            =     NEW
    Cache Level     =     2
    Cache Type      =     LRU
    Print Level     =     1
    Num. of threads =     12
    # Amps to Print =     10
    Print MP2 Amps? =     No
    Analyze T2 Amps =     No
    Print Pair Ener =     No
    Local CC        =     No
    SCS-MP2         =     False
    SCSN-MP2        =     False
    SCS-CCSD        =     False

MP2 correlation energy -0.4163827692590344
                Solving CC Amplitude Equations
                ------------------------------
  Iter             Energy              RMS        T1Diag      D1Diag    New D1Diag    D2Diag
  ----     ---------------------    ---------   ----------  ----------  ----------   --------
     0        -0.416382769259034    0.000e+00    0.000000    0.000000    0.000000    0.000000
     1        -0.427151631513125    5.672e-02    0.010452    0.000000    0.000000    0.000000
     2        -0.435299647376824    1.688e-02    0.010969    0.000000    0.000000    0.000000
     3        -0.437407639999229    8.515e-03    0.012821    0.000000    0.000000    0.000000
     4        -0.437283319219471    2.504e-03    0.013179    0.000000    0.000000    0.000000
     5        -0.437268444506447    1.303e-03    0.013333    0.000000    0.000000    0.000000
     6        -0.437294631963867    5.081e-04    0.013355    0.000000    0.000000    0.000000
     7        -0.437299320739997    2.543e-04    0.013349    0.000000    0.000000    0.000000
     8        -0.437299941441565    7.565e-05    0.013344    0.000000    0.000000    0.000000
     9        -0.437301256795001    3.735e-05    0.013344    0.000000    0.000000    0.000000
    10        -0.437299858572325    1.707e-05    0.013344    0.000000    0.000000    0.000000
    11        -0.437299971235200    9.699e-06    0.013345    0.000000    0.000000    0.000000
    12        -0.437299922210764    4.628e-06    0.013345    0.000000    0.000000    0.000000
    13        -0.437299946660042    1.995e-06    0.013345    0.000000    0.000000    0.000000
    14        -0.437299999936673    7.920e-07    0.013345    0.000000    0.000000    0.000000
    15        -0.437300002290549    2.019e-07    0.013345    0.000000    0.000000    0.000000
    16        -0.437300002721795    1.149e-07    0.013345    0.000000    0.000000    0.000000
    17        -0.437300003778706    3.404e-08    0.013345    0.000000    0.000000    0.000000
    18        -0.437300003289377    1.534e-08    0.013345    0.000000    0.000000    0.000000

      * MP2 total energy                      = -151.289040746994289
      * CCSD total energy                     = -151.309957980878011
      * CCSD(T) total energy                     = -151.322268401033057
*** Psi4 exiting successfully. Buy a developer a beer!
