                               Psi4 1.3.2 release

  ==> Input File <==

--------------------------------------------------------------------------
memory 4 GB

molecule  {
0 3
O    0.000000000000    0.000000000000   -1.464477094306
H    0.000000000000   -0.736377822232   -0.845583954206
H   -0.000000000000    0.736377822232   -0.845583954206
O    0.000000000000    0.000000000000    1.571036047094
}
set {
basis aug-cc-pvtz
reference uhf
e_convergence 10
scf_type pk
freeze_core true
}

set ccenergy {
e_convergence 10
r_convergence 10
}

e = energy('ccsd(t)')

print_out('Stephenergy {}'.format(e))

--------------------------------------------------------------------------

    Molecular point group: c2v

    Geometry (in Angstrom), charge = 0, multiplicity = 3:

       Center              X                  Y                   Z               Mass
    ------------   -----------------  -----------------  -----------------  -----------------
         O            0.000000000000     0.000000000000    -1.464477094306    15.994914619570
         H            0.000000000000    -0.736377822232    -0.845583954206     1.007825032230
         H           -0.000000000000     0.736377822232    -0.845583954206     1.007825032230
         O            0.000000000000     0.000000000000     1.571036047094    15.994914619570

  Charge       = 0
  Multiplicity = 3
  Basis Set: AUG-CC-PVTZ
    Blend: AUG-CC-PVTZ

    Orbital Energies [Eh]
    ---------------------

    Alpha Occupied:

       1A1   -20.733931     2A1   -20.561084     3A1    -1.443994
       4A1    -1.346571     1B2    -0.735466     1B1    -0.734471
       2B2    -0.698135     5A1    -0.642636     6A1    -0.580572
       2B1    -0.503530

    Alpha Virtual:

       7A1     0.036112     3B2     0.048804     8A1     0.130639
       3B1     0.130677     9A1     0.152775     4B2     0.159159
       4B1     0.185958     5B2     0.186756    10A1     0.191919
      11A1     0.264074     6B2     0.264163     1A2     0.266427
      12A1     0.276046     5B1     0.325779    13A1     0.385482
       7B2     0.387226    14A1     0.456437     8B2     0.475491
       2A2     0.613057     9B2     0.629674    15A1     0.629848
      16A1     0.648348     6B1     0.653887    17A1     0.717170
       3A2     0.733517    10B2     0.751290     7B1     0.764718
      18A1     0.778777     8B1     0.826271    11B2     0.850883
      19A1     0.864124     9B1     0.921032    12B2     0.944847
       4A2     0.950999    20A1     0.962289    21A1     0.997840
      10B1     1.000006    13B2     1.014735    22A1     1.066716
      14B2     1.067329    11B1     1.170826     5A2     1.199753
      23A1     1.205962    24A1     1.223581    15B2     1.268156
      16B2     1.346923    25A1     1.443874     6A2     1.511059
      12B1     1.582332    26A1     1.759279    27A1     1.839749
      17B2     1.864758    18B2     1.958699    13B1     1.975357
      28A1     2.009644    19B2     2.015848     7A2     2.019056
      14B1     2.042143    29A1     2.046434     8A2     2.083511
      30A1     2.101559    20B2     2.120362    15B1     2.159778
      31A1     2.215281    16B1     2.319099    21B2     2.338212
       9A2     2.347271    32A1     2.365806    33A1     2.425805
      34A1     2.497423    22B2     2.536032    17B1     2.567982
      35A1     2.623536    23B2     2.698693    18B1     2.728637
      36A1     2.871714    24B2     2.886452    10A2     2.893571
      25B2     3.687491    37A1     3.727361    19B1     4.055004
      11A2     4.062332    20B1     4.118156    26B2     4.128203
      38A1     4.205154    21B1     4.239820    27B2     4.293344
      39A1     4.299666    12A2     4.389342    22B1     4.426265
      40A1     4.524832    28B2     4.564343    41A1     4.781958
      29B2     4.882018    13A2     5.143894    30B2     5.217183
      31B2     5.230766    42A1     5.374176    23B1     5.543429
      43A1     5.640001    44A1     6.235904    24B1     6.311537
      32B2     6.314752    14A2     6.391660    45A1     6.405542
      25B1     6.427826    33B2     6.494842    46A1     6.520249
      34B2     6.563211    26B1     6.780199    15A2     6.821368
      47A1     6.823976    27B1     6.942413    48A1     6.977793
      35B2     6.982549    49A1     7.044605    28B1     7.141741
      29B1     7.271240    36B2     7.316388    16A2     7.327611
      17A2     7.355882    50A1     7.409303    51A1     7.562106
      52A1     7.870455    37B2     7.969964    38B2     8.841084
      53A1     8.914806    54A1    15.773480

    Beta Occupied:

       1A1   -20.655463     2A1   -20.561162     3A1    -1.347104
       4A1    -1.101965     1B2    -0.698585     5A1    -0.594773
       6A1    -0.539625     1B1    -0.503423

    Beta Virtual:

       2B2     0.032238     7A1     0.037420     2B1     0.046276
       3B2     0.069122     8A1     0.135976     9A1     0.155398
       3B1     0.161283     4B2     0.179396    10A1     0.192449
       4B1     0.225510     5B2     0.227270     6B2     0.265903
       1A2     0.267099    11A1     0.271271    12A1     0.280639
       5B1     0.328129    13A1     0.389295     7B2     0.396436
      14A1     0.458319     8B2     0.475950     9B2     0.630847
       2A2     0.645040    15A1     0.649804    16A1     0.663728
       6B1     0.664026    17A1     0.718127     3A2     0.734657
      10B2     0.766011     7B1     0.769665    18A1     0.793443
      19A1     0.868028     8B1     0.908509    11B2     0.939040
       9B1     0.940722     4A2     0.953735    12B2     0.956649
      20A1     0.964170    21A1     1.003385    13B2     1.037459
      10B1     1.040270    22A1     1.069550    14B2     1.080399
      11B1     1.184807     5A2     1.200893    23A1     1.215146
      24A1     1.262240    15B2     1.268322    16B2     1.365266
      25A1     1.461755     6A2     1.511431    12B1     1.582806
      26A1     1.781298    27A1     1.845541    17B2     1.866172
      18B2     1.971586    13B1     2.012389    28A1     2.037408
      19B2     2.040115    14B1     2.071928     7A2     2.083729
      29A1     2.106248    20B2     2.180195     8A2     2.188314
      30A1     2.192700    15B1     2.213386    31A1     2.258107
      16B1     2.329879     9A2     2.353085    21B2     2.367178
      32A1     2.372396    33A1     2.438839    34A1     2.499699
      22B2     2.544357    17B1     2.572781    35A1     2.628878
      23B2     2.699716    18B1     2.728843    36A1     2.872622
      24B2     2.887640    10A2     2.893658    25B2     3.688433
      37A1     3.728176    11A2     4.062482    19B1     4.111208
      38A1     4.205928    20B1     4.222548    21B1     4.250166
      26B2     4.291234    27B2     4.295625    39A1     4.319421
      12A2     4.389416    22B1     4.427256    40A1     4.551478
      28B2     4.566428    41A1     4.783106    29B2     4.882851
      13A2     5.143954    30B2     5.217231    31B2     5.231010
      42A1     5.374625    23B1     5.543447    43A1     5.640302
      44A1     6.242503    24B1     6.420073    32B2     6.422838
      14A2     6.468074    45A1     6.477841    25B1     6.481685
      33B2     6.503990    46A1     6.565033    34B2     6.611017
      26B1     6.787729    47A1     6.980038    15A2     7.009696
      48A1     7.016804    27B1     7.047531    35B2     7.091029
      49A1     7.119909    28B1     7.143272    29B1     7.271405
      36B2     7.316850    16A2     7.327711    17A2     7.356074
      50A1     7.410272    51A1     7.563748    52A1     7.870683
      37B2     7.969991    38B2     8.840930    53A1     8.994727
      54A1    15.773497

    Final Occupation by Irrep:
             A1    A2    B1    B2
    DOCC [     6,    0,    1,    1 ]
    SOCC [     0,    0,    1,    1 ]

  @UHF Final Energy:  -150.87140625165944

   => Energetics <=

    Nuclear Repulsion Energy =             23.6698571942103548
    One-Electron Energy =                -255.1000375784445282
    Two-Electron Energy =                  80.5587741325747402
    Total Energy =                       -150.8714062516594367

  UHF NO Occupations:
  HONO-2 :    6 A1 1.9970846
  HONO-1 :    2 B2 1.0000000
  HONO-0 :    2 B1 1.0000000
  LUNO+0 :    7 A1 0.0029154
  LUNO+1 :    8 A1 0.0016073
  LUNO+2 :    9 A1 0.0000024
  LUNO+3 :   10 A1 0.0000020

Computation Completed

Properties will be evaluated at   0.000000,   0.000000,   0.000000 [a0]

Properties computed using the SCF density matrix

  Nuclear Dipole Moment: [e a0]
     X:     0.0000      Y:     0.0000      Z:    -1.5849

  Electronic Dipole Moment: [e a0]
     X:     0.0000      Y:     0.0000      Z:     2.4622

  Dipole Moment: [e a0]
     X:     0.0000      Y:     0.0000      Z:     0.8773     Total:     0.8773

  Dipole Moment: [D]
     X:     0.0000      Y:     0.0000      Z:     2.2298     Total:     2.2298

*** tstop() called on c5-3.compute.lan at Wed Mar 10 09:29:27 2021
Module time:
	user time   =      50.20 seconds =       0.84 minutes
	system time =       1.28 seconds =       0.02 minutes
	total time  =          6 seconds =       0.10 minutes
Total time:
	user time   =      50.20 seconds =       0.84 minutes
	system time =       1.28 seconds =       0.02 minutes
	total time  =          6 seconds =       0.10 minutes
 MINTS: Wrapper to libmints.
   by Justin Turney

   Calculation information:
      Number of threads:                12
      Number of atoms:                   4
      Number of AO shells:              46
      Number of SO shells:              37
      Number of primitives:             82
      Number of atomic orbitals:       160
      Number of basis functions:       138

      Number of irreps:                  4
      Integral cutoff                 0.00e+00
      Number of functions per irrep: [  54   17   29   38 ]

 OEINTS: Overlap, kinetic, potential, dipole, and quadrupole integrals
         stored in file 35.

      Computing two-electron integrals...done
      Computed 11518942 non-zero two-electron integrals.
        Stored in file 33.

*** tstart() called on c5-3.compute.lan
*** at Wed Mar 10 09:29:29 2021

	Wfn Parameters:
	--------------------
	Wavefunction         = CCSD_T
	Number of irreps     = 4
	Number of MOs        = 138
	Number of active MOs = 136
	AO-Basis             = NONE
	Semicanonical        = false
	Reference            = UHF
	Print Level          = 1

	IRREP	# MOs	# FZDC	# DOCC	# SOCC	# VIRT	# FZVR
	-----	-----	------	------	------	------	------
	 A1	   54	    2	    4	    0	    48	    0
	 A2	   17	    0	    0	    0	    17	    0
	 B1	   29	    0	    1	    1	    27	    0
	 B2	   38	    0	    1	    1	    36	    0
	Transforming integrals...
	IWL integrals will be deleted.
	(OO|OO)...
	Presorting SO-basis two-electron integrals.
	Sorting File: SO Ints (nn|nn) nbuckets = 1
	Transforming the one-electron integrals and constructing Fock matrices
	Starting AA/AB first half-transformation.
	Sorting AA/AB half-transformed integrals.
	Starting BB first half-transformation.
	Sorting BB half-transformed integrals.
	First half integral transformation complete.
	Starting AA second half-transformation.
	Starting AB second half-transformation.
	Starting BB second half-transformation.
	Two-electron integral transformation complete.
	(OO|OV)...
	Starting AA second half-transformation.
	Starting AB second half-transformation.
	Starting BB second half-transformation.
	Two-electron integral transformation complete.
	(OO|VV)...
	Starting AA second half-transformation.
	Starting AB second half-transformation.
	Starting BB second half-transformation.
	Two-electron integral transformation complete.
	(OV|OO)...
	Starting AA/AB first half-transformation.
	Sorting AA/AB half-transformed integrals.
	Starting BB first half-transformation.
	Sorting BB half-transformed integrals.
	First half integral transformation complete.
	Starting AA second half-transformation.
	Starting AB second half-transformation.
	Starting BB second half-transformation.
	Two-electron integral transformation complete.
	(OV|OV)...
	Starting AA second half-transformation.
	Starting AB second half-transformation.
	Starting BB second half-transformation.
	Two-electron integral transformation complete.
	(OV|VV)...
	Starting AA second half-transformation.
	Starting AB second half-transformation.
	Starting BB second half-transformation.
	Two-electron integral transformation complete.
	(VV|OO)...
	Starting AA/AB first half-transformation.
	Sorting AA/AB half-transformed integrals.
	Starting BB first half-transformation.
	Sorting BB half-transformed integrals.
	First half integral transformation complete.
	Starting AA second half-transformation.
	Starting AB second half-transformation.
	Starting BB second half-transformation.
	Two-electron integral transformation complete.
	(VV|OV)...
	Starting AA second half-transformation.
	Starting AB second half-transformation.
	Starting BB second half-transformation.
	Two-electron integral transformation complete.
	(VV|VV)...
	Starting AA second half-transformation.
	Starting AB second half-transformation.
	Starting BB second half-transformation.
	Two-electron integral transformation complete.
	Frozen core energy     =   -126.13062931250617

	Size of irrep 0 of <AB|CD> integrals:      5.040 (MW) /     40.320 (MB)
	Size of irrep 1 of <AB|CD> integrals:      3.197 (MW) /     25.576 (MB)
	Size of irrep 2 of <AB|CD> integrals:      3.640 (MW) /     29.124 (MB)
	Size of irrep 3 of <AB|CD> integrals:      4.783 (MW) /     38.264 (MB)
	Total:                                    16.660 (MW) /    133.283 (MB)

	Size of irrep 0 of <ab|cd> integrals:      5.327 (MW) /     42.615 (MB)
	Size of irrep 1 of <ab|cd> integrals:      3.430 (MW) /     27.439 (MB)
	Size of irrep 2 of <ab|cd> integrals:      3.893 (MW) /     31.142 (MB)
	Size of irrep 3 of <ab|cd> integrals:      5.072 (MW) /     40.572 (MB)
	Total:                                    17.721 (MW) /    141.768 (MB)

	Size of irrep 0 of <Ab|Cd> integrals:     21.912 (MW) /    175.294 (MB)
	Size of irrep 1 of <Ab|Cd> integrals:     13.242 (MW) /    105.939 (MB)
	Size of irrep 2 of <Ab|Cd> integrals:     15.062 (MW) /    120.497 (MB)
	Size of irrep 3 of <Ab|Cd> integrals:     19.705 (MW) /    157.638 (MB)
	Total:                                    69.921 (MW) /    559.368 (MB)

	Size of irrep 0 of <IA|BC> integrals:      1.469 (MW) /     11.748 (MB)
	Size of irrep 1 of <IA|BC> integrals:      0.694 (MW) /      5.550 (MB)
	Size of irrep 2 of <IA|BC> integrals:      0.908 (MW) /      7.266 (MB)
	Size of irrep 3 of <IA|BC> integrals:      1.198 (MW) /      9.588 (MB)
	Total:                                     4.269 (MW) /     34.152 (MB)

	Size of irrep 0 of <ia|bc> integrals:      1.220 (MW) /      9.758 (MB)
	Size of irrep 1 of <ia|bc> integrals:      0.493 (MW) /      3.941 (MB)
	Size of irrep 2 of <ia|bc> integrals:      0.698 (MW) /      5.588 (MB)
	Size of irrep 3 of <ia|bc> integrals:      0.959 (MW) /      7.675 (MB)
	Total:                                     3.370 (MW) /     26.961 (MB)

	Size of irrep 0 of <Ia|Bc> integrals:      1.507 (MW) /     12.058 (MB)
	Size of irrep 1 of <Ia|Bc> integrals:      0.721 (MW) /      5.764 (MB)
	Size of irrep 2 of <Ia|Bc> integrals:      0.939 (MW) /      7.514 (MB)
	Size of irrep 3 of <Ia|Bc> integrals:      1.234 (MW) /      9.872 (MB)
	Total:                                     4.401 (MW) /     35.208 (MB)

	Size of irrep 0 of <iA|bC> integrals:      1.194 (MW) /      9.549 (MB)
	Size of irrep 1 of <iA|bC> integrals:      0.477 (MW) /      3.814 (MB)
	Size of irrep 2 of <iA|bC> integrals:      0.671 (MW) /      5.371 (MB)
	Size of irrep 3 of <iA|bC> integrals:      0.928 (MW) /      7.422 (MB)
	Total:                                     3.270 (MW) /     26.156 (MB)

	Size of irrep 0 of tIjAb amplitudes:       0.094 (MW) /      0.749 (MB)
	Size of irrep 1 of tIjAb amplitudes:       0.015 (MW) /      0.116 (MB)
	Size of irrep 2 of tIjAb amplitudes:       0.047 (MW) /      0.373 (MB)
	Size of irrep 3 of tIjAb amplitudes:       0.053 (MW) /      0.426 (MB)
	Total:                                     0.208 (MW) /      1.664 (MB)

	Nuclear Rep. energy          =     23.66985719421035
	SCF energy                   =   -150.87140625165944
	One-electron energy          =    -85.35041864899962
	Two-electron (AA) energy     =     10.28683641612878
	Two-electron (BB) energy     =      5.47065700748297
	Two-electron (AB) energy     =     21.18229109202144
	Two-electron energy          =     36.93978451563319
	Reference energy             =   -150.87140625166225

*** tstop() called on c5-3.compute.lan at Wed Mar 10 09:29:53 2021
Module time:
	user time   =      57.78 seconds =       0.96 minutes
	system time =      12.85 seconds =       0.21 minutes
	total time  =         24 seconds =       0.40 minutes
Total time:
	user time   =     113.17 seconds =       1.89 minutes
	system time =      14.52 seconds =       0.24 minutes
	total time  =         32 seconds =       0.53 minutes
            **************************
            *                        *
            *        CCENERGY        *
            *                        *
            **************************

    Nuclear Rep. energy (wfn)     =   23.669857194210355
    SCF energy          (wfn)     = -150.871406251659437
    Reference energy    (file100) = -150.871406251662250

    Input parameters:
    -----------------
    Wave function   =     CCSD_T
    Reference wfn   =     UHF
    Brueckner       =     No
    Memory (Mbytes) =     4000.0
    Maxiter         =     50
    R_Convergence   =     1.0e-10
    E_Convergence   =     1.0e-10
    Restart         =     Yes
    DIIS            =     Yes
    AO Basis        =     NONE
    ABCD            =     NEW
    Cache Level     =     2
    Cache Type      =     LRU
    Print Level     =     1
    Num. of threads =     12
    # Amps to Print =     10
    Print MP2 Amps? =     No
    Analyze T2 Amps =     No
    Print Pair Ener =     No
    Local CC        =     No
    SCS-MP2         =     False
    SCSN-MP2        =     False
    SCS-CCSD        =     False

MP2 correlation energy -0.4167425726409386
                Solving CC Amplitude Equations
                ------------------------------
  Iter             Energy              RMS        T1Diag      D1Diag    New D1Diag    D2Diag
  ----     ---------------------    ---------   ----------  ----------  ----------   --------
     0        -0.416742572640939    0.000e+00    0.000000    0.000000    0.000000    0.000000
     1        -0.427533689903054    5.674e-02    0.010496    0.000000    0.000000    0.000000
     2        -0.435686631819389    1.685e-02    0.011042    0.000000    0.000000    0.000000
     3        -0.437778551406605    8.601e-03    0.012927    0.000000    0.000000    0.000000
     4        -0.437654962489784    2.535e-03    0.013309    0.000000    0.000000    0.000000
     5        -0.437636490343543    1.395e-03    0.013482    0.000000    0.000000    0.000000
     6        -0.437664999023197    5.413e-04    0.013520    0.000000    0.000000    0.000000
     7        -0.437670067162206    3.046e-04    0.013522    0.000000    0.000000    0.000000
     8        -0.437670495846945    1.026e-04    0.013521    0.000000    0.000000    0.000000
     9        -0.437671912052630    5.672e-05    0.013523    0.000000    0.000000    0.000000
    10        -0.437670042502154    2.838e-05    0.013525    0.000000    0.000000    0.000000
    11        -0.437670263288734    1.480e-05    0.013526    0.000000    0.000000    0.000000
    12        -0.437670214995040    5.855e-06    0.013527    0.000000    0.000000    0.000000
    13        -0.437670268187721    2.032e-06    0.013527    0.000000    0.000000    0.000000
    14        -0.437670344142094    8.266e-07    0.013527    0.000000    0.000000    0.000000
    15        -0.437670350680342    2.387e-07    0.013527    0.000000    0.000000    0.000000
    16        -0.437670351758544    1.254e-07    0.013527    0.000000    0.000000    0.000000
    17        -0.437670353071736    4.245e-08    0.013527    0.000000    0.000000    0.000000
    18        -0.437670352292461    2.030e-08    0.013527    0.000000    0.000000    0.000000

      * MP2 total energy                      = -151.288148824303192
      * CCSD total energy                     = -151.309076603810865
      * CCSD(T) total energy                     = -151.321437759133772
*** Psi4 exiting successfully. Buy a developer a beer!
