                               Psi4 1.3.2 release

  ==> Input File <==

--------------------------------------------------------------------------
memory 4 GB

molecule  {
0 3
O   -1.506400547086   -0.018463005014    0.000000000000
H   -0.545692666786    0.065529500462    0.000000000000
H   -1.821723555001    0.888173216032    0.000000000000
O    1.655569291451   -0.041628936321    0.000000000000
}
set {
basis aug-cc-pvtz
reference uhf
e_convergence 10
scf_type pk
freeze_core true
}

set ccenergy {
e_convergence 10
r_convergence 10
}

e = energy('ccsd(t)')

print_out('Stephenergy {}'.format(e))

--------------------------------------------------------------------------

    Molecular point group: cs

    Geometry (in Angstrom), charge = 0, multiplicity = 3:

       Center              X                  Y                   Z               Mass
    ------------   -----------------  -----------------  -----------------  -----------------
         O           -1.506400547086    -0.018463005014     0.000000000000    15.994914619570
         H           -0.545692666786     0.065529500462     0.000000000000     1.007825032230
         H           -1.821723555001     0.888173216032     0.000000000000     1.007825032230
         O            1.655569291451    -0.041628936321     0.000000000000    15.994914619570

  Charge       = 0
  Multiplicity = 3
  Basis Set: AUG-CC-PVTZ
    Blend: AUG-CC-PVTZ

    Orbital Energies [Eh]
    ---------------------

    Alpha Occupied:

       1Ap   -20.734689     2Ap   -20.558314     3Ap    -1.444075
       4Ap    -1.342667     5Ap    -0.734638     1App   -0.734410
       6Ap    -0.709529     7Ap    -0.636323     8Ap    -0.574785
       2App   -0.501489

    Alpha Virtual:

       9Ap     0.034475    10Ap     0.053391    11Ap     0.127515
       3App    0.132005    12Ap     0.148090    13Ap     0.161008
      14Ap     0.183762     4App    0.186750    15Ap     0.213565
      16Ap     0.242029    17Ap     0.268897     5App    0.284434
      18Ap     0.298264     6App    0.322587    19Ap     0.369752
      20Ap     0.399001    21Ap     0.460858    22Ap     0.563708
       7App    0.600749    23Ap     0.608592    24Ap     0.637128
      25Ap     0.672321    26Ap     0.713546     8App    0.714314
       9App    0.735158    10App    0.748406    27Ap     0.764606
      28Ap     0.807904    11App    0.825100    29Ap     0.843845
      30Ap     0.874596    12App    0.886926    31Ap     0.925190
      13App    0.944395    32Ap     0.945924    33Ap     0.953859
      14App    0.979862    34Ap     0.982509    35Ap     1.044641
      36Ap     1.128916    15App    1.168818    37Ap     1.169413
      38Ap     1.193940    39Ap     1.271057    16App    1.279600
      40Ap     1.325334    17App    1.528755    41Ap     1.569019
      18App    1.600326    42Ap     1.701158    43Ap     1.817591
      44Ap     1.834582    19App    1.976073    45Ap     1.976083
      46Ap     1.987662    20App    2.011937    47Ap     2.017465
      21App    2.050853    48Ap     2.062834    22App    2.125918
      49Ap     2.164404    50Ap     2.177013    23App    2.215342
      24App    2.299513    51Ap     2.315670    52Ap     2.329570
      53Ap     2.417092    25App    2.453112    54Ap     2.462708
      55Ap     2.521992    26App    2.526819    56Ap     2.636107
      57Ap     2.696947    27App    2.728914    58Ap     2.749384
      59Ap     2.860361    60Ap     2.936230    28App    2.946990
      61Ap     3.701270    62Ap     3.899772    29App    4.037895
      30App    4.060310    63Ap     4.074130    31App    4.177248
      64Ap     4.204268    65Ap     4.273821    32App    4.298224
      66Ap     4.390414    33App    4.392669    67Ap     4.436521
      34App    4.437206    68Ap     4.589322    69Ap     4.783504
      70Ap     4.967075    35App    5.155127    71Ap     5.179243
      72Ap     5.303159    73Ap     5.382390    36App    5.527705
      74Ap     5.689331    75Ap     6.196318    37App    6.310619
      76Ap     6.310651    38App    6.374692    77Ap     6.377425
      39App    6.525141    78Ap     6.525436    79Ap     6.561995
      80Ap     6.641558    40App    6.729056    81Ap     6.812794
      41App    6.818992    82Ap     6.919592    42App    6.935643
      83Ap     6.966833    84Ap     7.051256    43App    7.148493
      44App    7.274992    85Ap     7.321607    45App    7.328014
      86Ap     7.362621    46App    7.443115    87Ap     7.655561
      88Ap     7.943672    89Ap     7.969368    90Ap     8.812671
      91Ap     9.480664    92Ap    16.460716

    Beta Occupied:

       1Ap   -20.655902     2Ap   -20.558458     3Ap    -1.343299
       4Ap    -1.101626     5Ap    -0.708448     6Ap    -0.581084
       7Ap    -0.541985     1App   -0.501543

    Beta Virtual:

       8Ap     0.034353     9Ap     0.047461     2App    0.048046
      10Ap     0.056210    11Ap     0.144397    12Ap     0.151604
       3App    0.160796    13Ap     0.179201    14Ap     0.208883
      15Ap     0.221520     4App    0.226275    16Ap     0.251512
      17Ap     0.270601     5App    0.284702    18Ap     0.300445
       6App    0.326593    19Ap     0.373716    20Ap     0.410289
      21Ap     0.461750    22Ap     0.567098     7App    0.633093
      23Ap     0.636742    24Ap     0.641852    25Ap     0.676010
      26Ap     0.714091     8App    0.727197     9App    0.737236
      10App    0.750101    27Ap     0.784401    28Ap     0.819679
      29Ap     0.853545    11App    0.868225    30Ap     0.920180
      12App    0.940178    31Ap     0.944252    13App    0.948914
      32Ap     0.954163    33Ap     0.971309    34Ap     1.017400
      14App    1.023151    35Ap     1.048521    36Ap     1.157940
      15App    1.172317    37Ap     1.176227    38Ap     1.218020
      39Ap     1.273641    16App    1.290384    40Ap     1.335198
      17App    1.529574    41Ap     1.573228    18App    1.601927
      42Ap     1.727832    43Ap     1.823632    44Ap     1.843498
      45Ap     1.995230    19App    2.014118    46Ap     2.014174
      20App    2.055400    47Ap     2.067499    21App    2.174583
      48Ap     2.178158    22App    2.179913    49Ap     2.204888
      50Ap     2.243479    23App    2.251919    24App    2.302019
      51Ap     2.323171    52Ap     2.349008    53Ap     2.422640
      25App    2.455352    54Ap     2.463460    55Ap     2.528703
      26App    2.535677    56Ap     2.643060    57Ap     2.708075
      27App    2.730230    58Ap     2.758572    59Ap     2.863237
      60Ap     2.939795    28App    2.947660    61Ap     3.701840
      62Ap     3.902692    29App    4.038792    30App    4.147848
      63Ap     4.182804    64Ap     4.243460    31App    4.259542
      65Ap     4.292471    32App    4.298351    33App    4.392792
      66Ap     4.400822    34App    4.438352    67Ap     4.473675
      68Ap     4.590782    69Ap     4.784835    70Ap     4.969363
      35App    5.155119    71Ap     5.179728    72Ap     5.303423
      73Ap     5.383575    36App    5.527798    74Ap     5.689858
      75Ap     6.197043    37App    6.419539    76Ap     6.419546
      38App    6.449949    77Ap     6.452650    78Ap     6.533720
      39App    6.579557    79Ap     6.609872    80Ap     6.686965
      40App    6.734063    81Ap     6.921792    41App    7.004624
      82Ap     7.005825    42App    7.044152    83Ap     7.071926
      84Ap     7.131108    43App    7.150984    44App    7.275423
      85Ap     7.321867    45App    7.328767    86Ap     7.363161
      46App    7.443560    87Ap     7.656604    88Ap     7.944274
      89Ap     7.969653    90Ap     8.814906    91Ap     9.555213
      92Ap    16.461191

    Final Occupation by Irrep:
             Ap   App
    DOCC [     7,    1 ]
    SOCC [     1,    1 ]

  @UHF Final Energy:  -150.87436625728489

   => Energetics <=

    Nuclear Repulsion Energy =             22.9561905768487691
    One-Electron Energy =                -253.6978482591872535
    Two-Electron Energy =                  79.8672914250535939
    Total Energy =                       -150.8743662572848905

  UHF NO Occupations:
  HONO-2 :    7 Ap 1.9970274
  HONO-1 :    2App 1.0000000
  HONO-0 :    8 Ap 1.0000000
  LUNO+0 :    9 Ap 0.0029726
  LUNO+1 :   10 Ap 0.0017120
  LUNO+2 :   11 Ap 0.0000024
  LUNO+3 :   12 Ap 0.0000020

Computation Completed

Properties will be evaluated at   0.000000,   0.000000,   0.000000 [a0]

Properties computed using the SCF density matrix

  Nuclear Dipole Moment: [e a0]
     X:    -2.2187      Y:     0.8938      Z:     0.0000

  Electronic Dipole Moment: [e a0]
     X:     2.7434      Y:    -0.2476      Z:     0.0000

  Dipole Moment: [e a0]
     X:     0.5247      Y:     0.6462      Z:     0.0000     Total:     0.8324

  Dipole Moment: [D]
     X:     1.3338      Y:     1.6424      Z:     0.0000     Total:     2.1158

*** tstop() called on d1-14.compute.lan at Tue Mar  9 15:19:09 2021
Module time:
	user time   =      60.02 seconds =       1.00 minutes
	system time =       3.59 seconds =       0.06 minutes
	total time  =          7 seconds =       0.12 minutes
Total time:
	user time   =      60.02 seconds =       1.00 minutes
	system time =       3.59 seconds =       0.06 minutes
	total time  =          7 seconds =       0.12 minutes
 MINTS: Wrapper to libmints.
   by Justin Turney

   Calculation information:
      Number of threads:                12
      Number of atoms:                   4
      Number of AO shells:              46
      Number of SO shells:              46
      Number of primitives:             82
      Number of atomic orbitals:       160
      Number of basis functions:       138

      Number of irreps:                  2
      Integral cutoff                 0.00e+00
      Number of functions per irrep: [  92   46 ]

 OEINTS: Overlap, kinetic, potential, dipole, and quadrupole integrals
         stored in file 35.

      Computing two-electron integrals...done
      Computed 22913554 non-zero two-electron integrals.
        Stored in file 33.

*** tstart() called on d1-14.compute.lan
*** at Tue Mar  9 15:19:13 2021

	Wfn Parameters:
	--------------------
	Wavefunction         = CCSD_T
	Number of irreps     = 2
	Number of MOs        = 138
	Number of active MOs = 136
	AO-Basis             = NONE
	Semicanonical        = false
	Reference            = UHF
	Print Level          = 1

	IRREP	# MOs	# FZDC	# DOCC	# SOCC	# VIRT	# FZVR
	-----	-----	------	------	------	------	------
	 Ap	   92	    2	    5	    1	    84	    0
	 App	   46	    0	    1	    1	    44	    0
	Transforming integrals...
	IWL integrals will be deleted.
	(OO|OO)...
	Presorting SO-basis two-electron integrals.
	Sorting File: SO Ints (nn|nn) nbuckets = 1
	Transforming the one-electron integrals and constructing Fock matrices
	Starting AA/AB first half-transformation.
	Sorting AA/AB half-transformed integrals.
	Starting BB first half-transformation.
	Sorting BB half-transformed integrals.
	First half integral transformation complete.
	Starting AA second half-transformation.
	Starting AB second half-transformation.
	Starting BB second half-transformation.
	Two-electron integral transformation complete.
	(OO|OV)...
	Starting AA second half-transformation.
	Starting AB second half-transformation.
	Starting BB second half-transformation.
	Two-electron integral transformation complete.
	(OO|VV)...
	Starting AA second half-transformation.
	Starting AB second half-transformation.
	Starting BB second half-transformation.
	Two-electron integral transformation complete.
	(OV|OO)...
	Starting AA/AB first half-transformation.
	Sorting AA/AB half-transformed integrals.
	Starting BB first half-transformation.
	Sorting BB half-transformed integrals.
	First half integral transformation complete.
	Starting AA second half-transformation.
	Starting AB second half-transformation.
	Starting BB second half-transformation.
	Two-electron integral transformation complete.
	(OV|OV)...
	Starting AA second half-transformation.
	Starting AB second half-transformation.
	Starting BB second half-transformation.
	Two-electron integral transformation complete.
	(OV|VV)...
	Starting AA second half-transformation.
	Starting AB second half-transformation.
	Starting BB second half-transformation.
	Two-electron integral transformation complete.
	(VV|OO)...
	Starting AA/AB first half-transformation.
	Sorting AA/AB half-transformed integrals.
	Starting BB first half-transformation.
	Sorting BB half-transformed integrals.
	First half integral transformation complete.
	Starting AA second half-transformation.
	Starting AB second half-transformation.
	Starting BB second half-transformation.
	Two-electron integral transformation complete.
	(VV|OV)...
	Starting AA second half-transformation.
	Starting AB second half-transformation.
	Starting BB second half-transformation.
	Two-electron integral transformation complete.
	(VV|VV)...
	Starting AA second half-transformation.
	Starting AB second half-transformation.
	Starting BB second half-transformation.
	Two-electron integral transformation complete.
	Frozen core energy     =   -125.87110355216139

	Size of irrep 0 of <AB|CD> integrals:     19.643 (MW) /    157.141 (MB)
	Size of irrep 1 of <AB|CD> integrals:     13.660 (MW) /    109.283 (MB)
	Total:                                    33.303 (MW) /    266.424 (MB)

	Size of irrep 0 of <ab|cd> integrals:     20.794 (MW) /    166.349 (MB)
	Size of irrep 1 of <ab|cd> integrals:     14.631 (MW) /    117.045 (MB)
	Total:                                    35.424 (MW) /    283.394 (MB)

	Size of irrep 0 of <Ab|Cd> integrals:     83.174 (MW) /    665.395 (MB)
	Size of irrep 1 of <Ab|Cd> integrals:     56.550 (MW) /    452.403 (MB)
	Total:                                   139.725 (MW) /   1117.798 (MB)

	Size of irrep 0 of <IA|BC> integrals:      5.323 (MW) /     42.586 (MB)
	Size of irrep 1 of <IA|BC> integrals:      3.193 (MW) /     25.547 (MB)
	Total:                                     8.517 (MW) /     68.133 (MB)

	Size of irrep 0 of <ia|bc> integrals:      4.348 (MW) /     34.780 (MB)
	Size of irrep 1 of <ia|bc> integrals:      2.372 (MW) /     18.972 (MB)
	Total:                                     6.719 (MW) /     53.752 (MB)

	Size of irrep 0 of <Ia|Bc> integrals:      5.472 (MW) /     43.776 (MB)
	Size of irrep 1 of <Ia|Bc> integrals:      3.309 (MW) /     26.470 (MB)
	Total:                                     8.781 (MW) /     70.246 (MB)

	Size of irrep 0 of <iA|bC> integrals:      4.232 (MW) /     33.853 (MB)
	Size of irrep 1 of <iA|bC> integrals:      2.286 (MW) /     18.289 (MB)
	Total:                                     6.518 (MW) /     52.142 (MB)

	Size of irrep 0 of tIjAb amplitudes:       0.292 (MW) /      2.335 (MB)
	Size of irrep 1 of tIjAb amplitudes:       0.120 (MW) /      0.963 (MB)
	Total:                                     0.412 (MW) /      3.297 (MB)

	Nuclear Rep. energy          =     22.95619057684877
	SCF energy                   =   -150.87436625728489
	One-electron energy          =    -84.46300532818631
	Two-electron (AA) energy     =     10.14485365072510
	Two-electron (BB) energy     =      5.39755308723333
	Two-electron (AB) energy     =     20.96114530825412
	Two-electron energy          =     36.50355204621255
	Reference energy             =   -150.87436625728637

*** tstop() called on d1-14.compute.lan at Tue Mar  9 15:20:20 2021
Module time:
	user time   =     371.38 seconds =       6.19 minutes
	system time =      53.68 seconds =       0.89 minutes
	total time  =         67 seconds =       1.12 minutes
Total time:
	user time   =     438.38 seconds =       7.31 minutes
	system time =      58.15 seconds =       0.97 minutes
	total time  =         78 seconds =       1.30 minutes
            **************************
            *                        *
            *        CCENERGY        *
            *                        *
            **************************

    Nuclear Rep. energy (wfn)     =   22.956190576848769
    SCF energy          (wfn)     = -150.874366257284890
    Reference energy    (file100) = -150.874366257286368

    Input parameters:
    -----------------
    Wave function   =     CCSD_T
    Reference wfn   =     UHF
    Brueckner       =     No
    Memory (Mbytes) =     4000.0
    Maxiter         =     50
    R_Convergence   =     1.0e-10
    E_Convergence   =     1.0e-10
    Restart         =     Yes
    DIIS            =     Yes
    AO Basis        =     NONE
    ABCD            =     NEW
    Cache Level     =     2
    Cache Type      =     LRU
    Print Level     =     1
    Num. of threads =     12
    # Amps to Print =     10
    Print MP2 Amps? =     No
    Analyze T2 Amps =     No
    Print Pair Ener =     No
    Local CC        =     No
    SCS-MP2         =     False
    SCSN-MP2        =     False
    SCS-CCSD        =     False

MP2 correlation energy -0.4166808133833708
                Solving CC Amplitude Equations
                ------------------------------
  Iter             Energy              RMS        T1Diag      D1Diag    New D1Diag    D2Diag
  ----     ---------------------    ---------   ----------  ----------  ----------   --------
     0        -0.416680813383371    0.000e+00    0.000000    0.000000    0.000000    0.000000
     1        -0.427391839276679    5.690e-02    0.010558    0.000000    0.000000    0.000000
     2        -0.435485872829516    1.689e-02    0.011043    0.000000    0.000000    0.000000
     3        -0.437604818902233    8.584e-03    0.012917    0.000000    0.000000    0.000000
     4        -0.437479381202831    2.537e-03    0.013287    0.000000    0.000000    0.000000
     5        -0.437464250888428    1.331e-03    0.013445    0.000000    0.000000    0.000000
     6        -0.437491689305864    5.178e-04    0.013469    0.000000    0.000000    0.000000
     7        -0.437496484243874    2.712e-04    0.013465    0.000000    0.000000    0.000000
     8        -0.437497046010057    1.002e-04    0.013460    0.000000    0.000000    0.000000
     9        -0.437498458245532    7.303e-05    0.013461    0.000000    0.000000    0.000000
    10        -0.437496846585205    6.145e-05    0.013463    0.000000    0.000000    0.000000
    11        -0.437496997898190    5.803e-05    0.013464    0.000000    0.000000    0.000000
    12        -0.437496765217249    5.619e-05    0.013466    0.000000    0.000000    0.000000
    13        -0.437496765283396    5.517e-05    0.013468    0.000000    0.000000    0.000000
    14        -0.437497803990335    5.368e-05    0.013481    0.000000    0.000000    0.000000
    15        -0.437498165847211    4.840e-05    0.013538    0.000000    0.000000    0.000000
    16        -0.437497926657674    3.357e-05    0.013663    0.000000    0.000000    0.000000
    17        -0.437497595904942    1.653e-05    0.013732    0.000000    0.000000    0.000000
    18        -0.437497449541383    7.767e-06    0.013750    0.000000    0.000000    0.000000
    19        -0.437497699046123    3.441e-06    0.013755    0.000000    0.000000    0.000000
    20        -0.437497815092267    1.535e-06    0.013756    0.000000    0.000000    0.000000
    21        -0.437497822982077    6.183e-07    0.013756    0.000000    0.000000    0.000000
    22        -0.437497824483386    2.947e-07    0.013756    0.000000    0.000000    0.000000
    23        -0.437497823468173    1.526e-07    0.013756    0.000000    0.000000    0.000000
    24        -0.437497822545283    6.172e-08    0.013756    0.000000    0.000000    0.000000
    25        -0.437497823507311    3.213e-08    0.013756    0.000000    0.000000    0.000000
    26        -0.437497823977009    2.402e-08    0.013756    0.000000    0.000000    0.000000
    27        -0.437497824132026    2.236e-08    0.013756    0.000000    0.000000    0.000000
    28        -0.437497824094368    2.170e-08    0.013756    0.000000    0.000000    0.000000
    29        -0.437497823965238    2.121e-08    0.013756    0.000000    0.000000    0.000000
    30        -0.437497823726200    2.055e-08    0.013756    0.000000    0.000000    0.000000
    31        -0.437497823787574    1.852e-08    0.013756    0.000000    0.000000    0.000000
    32        -0.437497824109574    1.144e-08    0.013756    0.000000    0.000000    0.000000
    33        -0.437497824230808    5.231e-09    0.013756    0.000000    0.000000    0.000000
    34        -0.437497824302668    2.151e-09    0.013756    0.000000    0.000000    0.000000
    35        -0.437497824311147    8.073e-10    0.013756    0.000000    0.000000    0.000000
    36        -0.437497824311998    3.344e-10    0.013756    0.000000    0.000000    0.000000

      * MP2 total energy                      = -151.291047070669748
      * CCSD total energy                     = -151.311864081598287
      * CCSD(T) total energy                     = -151.324231546028841
*** Psi4 exiting successfully. Buy a developer a beer!
