                               Psi4 1.3.2 release

  ==> Input File <==

--------------------------------------------------------------------------
memory 4 GB

molecule  {
0 1
O    0.000000000000    0.000000000000   -0.067775062739
H    0.000000000000   -0.753333404800    0.537819714321
H   -0.000000000000    0.753333404800    0.537819714321
}
set {
basis aug-cc-pvtz
reference uhf
e_convergence 10
scf_type pk
freeze_core true
}

set ccenergy {
e_convergence 10
r_convergence 10
}

e = energy('ccsd(t)')

print_out('Stephenergy {}'.format(e))

--------------------------------------------------------------------------

    Molecular point group: c2v

    Geometry (in Angstrom), charge = 0, multiplicity = 1:

       Center              X                  Y                   Z               Mass
    ------------   -----------------  -----------------  -----------------  -----------------
         O            0.000000000000     0.000000000000    -0.067775062739    15.994914619570
         H            0.000000000000    -0.753333404800     0.537819714321     1.007825032230
         H           -0.000000000000     0.753333404800     0.537819714321     1.007825032230

  Charge       = 0
  Multiplicity = 1
  Basis Set: AUG-CC-PVTZ
    Blend: AUG-CC-PVTZ

    Orbital Energies [Eh]
    ---------------------

    Alpha Occupied:

       1A1   -20.569758     2A1    -1.350331     1B2    -0.708676
       3A1    -0.587275     1B1    -0.510219

    Alpha Virtual:

       4A1     0.029188     2B2     0.047780     5A1     0.135608
       2B1     0.159316     6A1     0.175352     3B2     0.183513
       4B2     0.226068     7A1     0.244912     1A2     0.266001
       3B1     0.298005     8A1     0.308907     5B2     0.365877
       9A1     0.436187     6B2     0.464912     7B2     0.597812
      10A1     0.659690    11A1     0.706374     2A2     0.724102
       4B1     0.731624    12A1     0.830545     5B1     0.847475
      13A1     0.893950     8B2     0.911342     6B1     0.916539
       3A2     0.922504     9B2     0.931745    14A1     0.957424
      15A1     1.018401    10B2     1.040866     7B1     1.080999
      11B2     1.106024     4A2     1.176464    16A1     1.182613
      12B2     1.263317     5A2     1.507665    17A1     1.523447
       8B1     1.575084    18A1     1.810457    13B2     1.830267
      14B2     1.972178    19A1     2.115097     9B1     2.263183
       6A2     2.313946    20A1     2.329700    21A1     2.417540
      10B1     2.421266    15B2     2.444497    22A1     2.483201
      16B2     2.677187    11B1     2.697876    23A1     2.770863
      17B2     2.798603     7A2     2.881255    18B2     3.648876
      24A1     3.719635     8A2     4.021219    12B1     4.075138
      25A1     4.138643    19B2     4.247911    13B1     4.263149
      26A1     4.363134     9A2     4.373988    14B1     4.402244
      20B2     4.522172    27A1     4.725145    21B2     4.836389
      10A2     5.128630    22B2     5.160668    23B2     5.221972
      28A1     5.299746    15B1     5.511569    29A1     5.632721
      30A1     6.184369    24B2     6.506133    16B1     6.706880
      31A1     6.906382    17B1     7.122333    18B1     7.248625
      25B2     7.256738    11A2     7.303306    32A1     7.342032
      12A2     7.349083    33A1     7.510349    34A1     7.864889
      26B2     7.917488    27B2     8.784536    35A1    15.538578

    Beta Occupied:

       1A1   -20.569758     2A1    -1.350331     1B2    -0.708676
       3A1    -0.587275     1B1    -0.510219

    Beta Virtual:

       4A1     0.029188     2B2     0.047780     5A1     0.135608
       2B1     0.159316     6A1     0.175352     3B2     0.183513
       4B2     0.226068     7A1     0.244912     1A2     0.266001
       3B1     0.298005     8A1     0.308907     5B2     0.365877
       9A1     0.436187     6B2     0.464912     7B2     0.597812
      10A1     0.659690    11A1     0.706374     2A2     0.724102
       4B1     0.731624    12A1     0.830545     5B1     0.847475
      13A1     0.893950     8B2     0.911342     6B1     0.916539
       3A2     0.922504     9B2     0.931745    14A1     0.957424
      15A1     1.018401    10B2     1.040866     7B1     1.080999
      11B2     1.106024     4A2     1.176464    16A1     1.182613
      12B2     1.263317     5A2     1.507665    17A1     1.523447
       8B1     1.575084    18A1     1.810457    13B2     1.830267
      14B2     1.972178    19A1     2.115097     9B1     2.263183
       6A2     2.313946    20A1     2.329700    21A1     2.417540
      10B1     2.421266    15B2     2.444497    22A1     2.483201
      16B2     2.677187    11B1     2.697876    23A1     2.770863
      17B2     2.798603     7A2     2.881255    18B2     3.648876
      24A1     3.719635     8A2     4.021219    12B1     4.075138
      25A1     4.138643    19B2     4.247911    13B1     4.263149
      26A1     4.363134     9A2     4.373988    14B1     4.402244
      20B2     4.522172    27A1     4.725145    21B2     4.836389
      10A2     5.128630    22B2     5.160668    23B2     5.221972
      28A1     5.299746    15B1     5.511569    29A1     5.632721
      30A1     6.184369    24B2     6.506133    16B1     6.706880
      31A1     6.906382    17B1     7.122333    18B1     7.248625
      25B2     7.256738    11A2     7.303306    32A1     7.342032
      12A2     7.349083    33A1     7.510349    34A1     7.864889
      26B2     7.917488    27B2     8.784536    35A1    15.538578

    Final Occupation by Irrep:
             A1    A2    B1    B2
    DOCC [     3,    0,    1,    1 ]
    SOCC [     0,    0,    0,    0 ]

  @UHF Final Energy:   -76.05961917579347

   => Energetics <=

    Nuclear Repulsion Energy =              9.1109011085087417
    One-Electron Energy =                -122.8885228072938105
    Two-Electron Energy =                  37.7180025229916041
    Total Energy =                        -76.0596191757934719

  UHF NO Occupations:
  HONO-2 :    1 B1 2.0000000
  HONO-1 :    2 A1 2.0000000
  HONO-0 :    3 A1 2.0000000
  LUNO+0 :    2 B2 0.0000000
  LUNO+1 :    4 A1 0.0000000
  LUNO+2 :    5 A1 0.0000000
  LUNO+3 :    6 A1 0.0000000

Computation Completed

Properties will be evaluated at   0.000000,   0.000000,   0.000000 [a0]

Properties computed using the SCF density matrix

  Nuclear Dipole Moment: [e a0]
     X:     0.0000      Y:     0.0000      Z:     1.0081

  Electronic Dipole Moment: [e a0]
     X:     0.0000      Y:     0.0000      Z:    -0.2115

  Dipole Moment: [e a0]
     X:     0.0000      Y:     0.0000      Z:     0.7966     Total:     0.7966

  Dipole Moment: [D]
     X:     0.0000      Y:     0.0000      Z:     2.0247     Total:     2.0247

*** tstop() called on c2-22.compute.lan at Mon Mar  8 09:41:22 2021
Module time:
	user time   =      19.80 seconds =       0.33 minutes
	system time =       1.01 seconds =       0.02 minutes
	total time  =          3 seconds =       0.05 minutes
Total time:
	user time   =      19.80 seconds =       0.33 minutes
	system time =       1.01 seconds =       0.02 minutes
	total time  =          3 seconds =       0.05 minutes
 MINTS: Wrapper to libmints.
   by Justin Turney

   Calculation information:
      Number of threads:                12
      Number of atoms:                   3
      Number of AO shells:              32
      Number of SO shells:              23
      Number of primitives:             52
      Number of atomic orbitals:       105
      Number of basis functions:        92

      Number of irreps:                  4
      Integral cutoff                 0.00e+00
      Number of functions per irrep: [  35   12   18   27 ]

 OEINTS: Overlap, kinetic, potential, dipole, and quadrupole integrals
         stored in file 35.

      Computing two-electron integrals...done
      Computed 2225303 non-zero two-electron integrals.
        Stored in file 33.

*** tstart() called on c2-22.compute.lan
*** at Mon Mar  8 09:41:23 2021

	Wfn Parameters:
	--------------------
	Wavefunction         = CCSD_T
	Number of irreps     = 4
	Number of MOs        = 92
	Number of active MOs = 91
	AO-Basis             = NONE
	Semicanonical        = false
	Reference            = UHF
	Print Level          = 1

	IRREP	# MOs	# FZDC	# DOCC	# SOCC	# VIRT	# FZVR
	-----	-----	------	------	------	------	------
	 A1	   35	    1	    2	    0	    32	    0
	 A2	   12	    0	    0	    0	    12	    0
	 B1	   18	    0	    1	    0	    17	    0
	 B2	   27	    0	    1	    0	    26	    0
	Transforming integrals...
	IWL integrals will be deleted.
	(OO|OO)...
	Presorting SO-basis two-electron integrals.
	Sorting File: SO Ints (nn|nn) nbuckets = 1
	Transforming the one-electron integrals and constructing Fock matrices
	Starting AA/AB first half-transformation.
	Sorting AA/AB half-transformed integrals.
	Starting BB first half-transformation.
	Sorting BB half-transformed integrals.
	First half integral transformation complete.
	Starting AA second half-transformation.
	Starting AB second half-transformation.
	Starting BB second half-transformation.
	Two-electron integral transformation complete.
	(OO|OV)...
	Starting AA second half-transformation.
	Starting AB second half-transformation.
	Starting BB second half-transformation.
	Two-electron integral transformation complete.
	(OO|VV)...
	Starting AA second half-transformation.
	Starting AB second half-transformation.
	Starting BB second half-transformation.
	Two-electron integral transformation complete.
	(OV|OO)...
	Starting AA/AB first half-transformation.
	Sorting AA/AB half-transformed integrals.
	Starting BB first half-transformation.
	Sorting BB half-transformed integrals.
	First half integral transformation complete.
	Starting AA second half-transformation.
	Starting AB second half-transformation.
	Starting BB second half-transformation.
	Two-electron integral transformation complete.
	(OV|OV)...
	Starting AA second half-transformation.
	Starting AB second half-transformation.
	Starting BB second half-transformation.
	Two-electron integral transformation complete.
	(OV|VV)...
	Starting AA second half-transformation.
	Starting AB second half-transformation.
	Starting BB second half-transformation.
	Two-electron integral transformation complete.
	(VV|OO)...
	Starting AA/AB first half-transformation.
	Sorting AA/AB half-transformed integrals.
	Starting BB first half-transformation.
	Sorting BB half-transformed integrals.
	First half integral transformation complete.
	Starting AA second half-transformation.
	Starting AB second half-transformation.
	Starting BB second half-transformation.
	Two-electron integral transformation complete.
	(VV|OV)...
	Starting AA second half-transformation.
	Starting AB second half-transformation.
	Starting BB second half-transformation.
	Two-electron integral transformation complete.
	(VV|VV)...
	Starting AA second half-transformation.
	Starting AB second half-transformation.
	Starting BB second half-transformation.
	Two-electron integral transformation complete.
	Frozen core energy     =    -61.29539951870497

	Size of irrep 0 of <AB|CD> integrals:      1.047 (MW) /      8.372 (MB)
	Size of irrep 1 of <AB|CD> integrals:      0.682 (MW) /      5.458 (MB)
	Size of irrep 2 of <AB|CD> integrals:      0.733 (MW) /      5.862 (MB)
	Size of irrep 3 of <AB|CD> integrals:      1.073 (MW) /      8.586 (MB)
	Total:                                     3.535 (MW) /     28.279 (MB)

	Size of irrep 0 of <ab|cd> integrals:      1.047 (MW) /      8.372 (MB)
	Size of irrep 1 of <ab|cd> integrals:      0.682 (MW) /      5.458 (MB)
	Size of irrep 2 of <ab|cd> integrals:      0.733 (MW) /      5.862 (MB)
	Size of irrep 3 of <ab|cd> integrals:      1.073 (MW) /      8.586 (MB)
	Total:                                     3.535 (MW) /     28.279 (MB)

	Size of irrep 0 of <Ab|Cd> integrals:      4.550 (MW) /     36.398 (MB)
	Size of irrep 1 of <Ab|Cd> integrals:      2.729 (MW) /     21.833 (MB)
	Size of irrep 2 of <Ab|Cd> integrals:      2.931 (MW) /     23.448 (MB)
	Size of irrep 3 of <Ab|Cd> integrals:      4.293 (MW) /     34.345 (MB)
	Total:                                    14.503 (MW) /    116.023 (MB)

	Size of irrep 0 of <IA|BC> integrals:      0.228 (MW) /      1.826 (MB)
	Size of irrep 1 of <IA|BC> integrals:      0.111 (MW) /      0.885 (MB)
	Size of irrep 2 of <IA|BC> integrals:      0.134 (MW) /      1.068 (MB)
	Size of irrep 3 of <IA|BC> integrals:      0.199 (MW) /      1.591 (MB)
	Total:                                     0.671 (MW) /      5.371 (MB)

	Size of irrep 0 of <ia|bc> integrals:      0.228 (MW) /      1.826 (MB)
	Size of irrep 1 of <ia|bc> integrals:      0.111 (MW) /      0.885 (MB)
	Size of irrep 2 of <ia|bc> integrals:      0.134 (MW) /      1.068 (MB)
	Size of irrep 3 of <ia|bc> integrals:      0.199 (MW) /      1.591 (MB)
	Total:                                     0.671 (MW) /      5.371 (MB)

	Size of irrep 0 of <Ia|Bc> integrals:      0.228 (MW) /      1.826 (MB)
	Size of irrep 1 of <Ia|Bc> integrals:      0.111 (MW) /      0.885 (MB)
	Size of irrep 2 of <Ia|Bc> integrals:      0.134 (MW) /      1.068 (MB)
	Size of irrep 3 of <Ia|Bc> integrals:      0.199 (MW) /      1.591 (MB)
	Total:                                     0.671 (MW) /      5.371 (MB)

	Size of irrep 0 of <iA|bC> integrals:      0.228 (MW) /      1.826 (MB)
	Size of irrep 1 of <iA|bC> integrals:      0.111 (MW) /      0.885 (MB)
	Size of irrep 2 of <iA|bC> integrals:      0.134 (MW) /      1.068 (MB)
	Size of irrep 3 of <iA|bC> integrals:      0.199 (MW) /      1.591 (MB)
	Total:                                     0.671 (MW) /      5.371 (MB)

	Size of irrep 0 of tIjAb amplitudes:       0.013 (MW) /      0.102 (MB)
	Size of irrep 1 of tIjAb amplitudes:       0.003 (MW) /      0.026 (MB)
	Size of irrep 2 of tIjAb amplitudes:       0.007 (MW) /      0.055 (MB)
	Size of irrep 3 of tIjAb amplitudes:       0.008 (MW) /      0.066 (MB)
	Total:                                     0.031 (MW) /      0.250 (MB)

	Nuclear Rep. energy          =      9.11090110850874
	SCF energy                   =    -76.05961917579347
	One-electron energy          =    -41.43723946591853
	Two-electron (AA) energy     =      3.41387094998679
	Two-electron (BB) energy     =      3.41387094998679
	Two-electron (AB) energy     =     10.73437680034781
	Two-electron energy          =     17.56211870032138
	Reference energy             =    -76.05961917579339

*** tstop() called on c2-22.compute.lan at Mon Mar  8 09:41:39 2021
Module time:
	user time   =     136.50 seconds =       2.27 minutes
	system time =       8.29 seconds =       0.14 minutes
	total time  =         16 seconds =       0.27 minutes
Total time:
	user time   =     159.99 seconds =       2.67 minutes
	system time =       9.57 seconds =       0.16 minutes
	total time  =         20 seconds =       0.33 minutes
            **************************
            *                        *
            *        CCENERGY        *
            *                        *
            **************************

    Nuclear Rep. energy (wfn)     =    9.110901108508742
    SCF energy          (wfn)     =  -76.059619175793472
    Reference energy    (file100) =  -76.059619175793387

    Input parameters:
    -----------------
    Wave function   =     CCSD_T
    Reference wfn   =     UHF
    Brueckner       =     No
    Memory (Mbytes) =     4000.0
    Maxiter         =     50
    R_Convergence   =     1.0e-10
    E_Convergence   =     1.0e-10
    Restart         =     Yes
    DIIS            =     Yes
    AO Basis        =     NONE
    ABCD            =     NEW
    Cache Level     =     2
    Cache Type      =     LRU
    Print Level     =     1
    Num. of threads =     12
    # Amps to Print =     10
    Print MP2 Amps? =     No
    Analyze T2 Amps =     No
    Print Pair Ener =     No
    Local CC        =     No
    SCS-MP2         =     False
    SCSN-MP2        =     False
    SCS-CCSD        =     False

MP2 correlation energy -0.2692707788285074
                Solving CC Amplitude Equations
                ------------------------------
  Iter             Energy              RMS        T1Diag      D1Diag    New D1Diag    D2Diag
  ----     ---------------------    ---------   ----------  ----------  ----------   --------
     0        -0.269270778828507    0.000e+00    0.000000    0.000000    0.000000    0.000000
     1        -0.267601667308509    4.815e-02    0.012219    0.000000    0.000000    0.000000
     2        -0.272748288277037    1.332e-02    0.011991    0.000000    0.000000    0.000000
     3        -0.273988881966481    6.267e-03    0.013875    0.000000    0.000000    0.000000
     4        -0.273883185666131    1.264e-03    0.014203    0.000000    0.000000    0.000000
     5        -0.273866871660562    4.653e-04    0.014337    0.000000    0.000000    0.000000
     6        -0.273867722507333    1.159e-04    0.014368    0.000000    0.000000    0.000000
     7        -0.273866470302288    3.926e-05    0.014374    0.000000    0.000000    0.000000
     8        -0.273866515199765    1.074e-05    0.014376    0.000000    0.000000    0.000000
     9        -0.273866558621366    3.273e-06    0.014376    0.000000    0.000000    0.000000
    10        -0.273866436767074    1.310e-06    0.014376    0.000000    0.000000    0.000000
    11        -0.273866454038037    4.501e-07    0.014376    0.000000    0.000000    0.000000
    12        -0.273866448697224    1.703e-07    0.014376    0.000000    0.000000    0.000000
    13        -0.273866450467557    5.053e-08    0.014376    0.000000    0.000000    0.000000
    14        -0.273866451667050    1.337e-08    0.014376    0.000000    0.000000    0.000000
    15        -0.273866451722152    4.040e-09    0.014376    0.000000    0.000000    0.000000
    16        -0.273866451728069    1.224e-09    0.014376    0.000000    0.000000    0.000000
    17        -0.273866451738257    4.191e-10    0.014376    0.000000    0.000000    0.000000
    18        -0.273866451735688    1.092e-10    0.014376    0.000000    0.000000    0.000000
    19        -0.273866451735472    3.304e-11    0.014376    0.000000    0.000000    0.000000

    Iterations converged.

    Largest TIA Amplitudes:
              2  44        -0.0153148059
              2  45        -0.0132154618
              1   1         0.0084814658
              1   4        -0.0077004611
              3  73         0.0054777540
              2  54         0.0042905834
              3  69         0.0038536229
              3  80         0.0036750558
              2  47        -0.0036494378
              1  23         0.0034084977

    Largest Tia Amplitudes:
              2  44        -0.0153148059
              2  45        -0.0132154618
              1   1         0.0084814658
              1   4        -0.0077004611
              3  73         0.0054777540
              2  54         0.0042905834
              3  69         0.0038536229
              3  80         0.0036750558
              2  47        -0.0036494378
              1  23         0.0034084977

    Largest TIJAB Amplitudes:
      2   1  46   7        -0.0096008327
      3   1  66   6        -0.0093969292

      * MP2 total energy                      =  -76.328889954621900
      * CCSD total energy                     =  -76.333485627528859
      * CCSD(T) total energy                     =  -76.342219698438171
*** Psi4 exiting successfully. Buy a developer a beer!
