                               Psi4 1.3.2 release

  ==> Input File <==

--------------------------------------------------------------------------
memory 4 GB

molecule  {
0 3
O   -1.522636442466   -0.028942593331    0.000000000000
H   -0.559924226166   -0.010479009631    0.000000000000
H   -1.775836505665    0.897016672388    0.000000000000
O    1.669810603180   -0.026917339016    0.000000000000
}
set {
basis aug-cc-pvtz
reference uhf
e_convergence 10
scf_type pk
freeze_core true
}

set ccenergy {
e_convergence 10
r_convergence 10
}

e = energy('ccsd(t)')

print_out('Stephenergy {}'.format(e))

--------------------------------------------------------------------------

    Molecular point group: cs

    Geometry (in Angstrom), charge = 0, multiplicity = 3:

       Center              X                  Y                   Z               Mass
    ------------   -----------------  -----------------  -----------------  -----------------
         O           -1.522636442466    -0.028942593331     0.000000000000    15.994914619570
         H           -0.559924226166    -0.010479009631     0.000000000000     1.007825032230
         H           -1.775836505665     0.897016672388     0.000000000000     1.007825032230
         O            1.669810603180    -0.026917339016     0.000000000000    15.994914619570

  Charge       = 0
  Multiplicity = 3
  Basis Set: AUG-CC-PVTZ
    Blend: AUG-CC-PVTZ

    Orbital Energies [Eh]
    ---------------------

    Alpha Occupied:

       1Ap   -20.734909     2Ap   -20.558448     3Ap    -1.444220
       4Ap    -1.343216     5Ap    -0.734762     1App   -0.734615
       6Ap    -0.709747     7Ap    -0.636917     8Ap    -0.575038
       2App   -0.501739

    Alpha Virtual:

       9Ap     0.034593    10Ap     0.053268    11Ap     0.127532
       3App    0.131525    12Ap     0.148050    13Ap     0.161249
      14Ap     0.183458     4App    0.186203    15Ap     0.211444
      16Ap     0.241551    17Ap     0.272131     5App    0.282454
      18Ap     0.293170     6App    0.323297    19Ap     0.372143
      20Ap     0.392667    21Ap     0.460345    22Ap     0.558772
       7App    0.600087    23Ap     0.608688    24Ap     0.643927
      25Ap     0.668890    26Ap     0.712035     8App    0.712534
       9App    0.734693    10App    0.747249    27Ap     0.765644
      28Ap     0.797018    11App    0.824748    29Ap     0.851932
      30Ap     0.865819    12App    0.883226    31Ap     0.922971
      13App    0.941883    32Ap     0.944235    33Ap     0.956806
      14App    0.983984    34Ap     0.986211    35Ap     1.043708
      36Ap     1.127953    37Ap     1.169036    15App    1.178458
      38Ap     1.193773    16App    1.258860    39Ap     1.272480
      40Ap     1.323603    17App    1.528758    41Ap     1.554539
      18App    1.600834    42Ap     1.688891    43Ap     1.819909
      44Ap     1.826193    19App    1.975613    45Ap     1.975654
      46Ap     1.997340    20App    2.011164    47Ap     2.017976
      21App    2.048201    48Ap     2.060646    22App    2.122158
      49Ap     2.163979    50Ap     2.165198    23App    2.210491
      24App    2.294763    51Ap     2.300048    52Ap     2.329366
      53Ap     2.414393    25App    2.448887    54Ap     2.462094
      26App    2.523536    55Ap     2.536037    56Ap     2.630683
      57Ap     2.667700    27App    2.728707    58Ap     2.750359
      59Ap     2.866620    60Ap     2.942252    28App    2.946654
      61Ap     3.700678    62Ap     3.892828    29App    4.036614
      30App    4.058399    63Ap     4.076488    31App    4.172526
      64Ap     4.199515    65Ap     4.275614    32App    4.298234
      66Ap     4.375866    33App    4.393754    67Ap     4.436306
      34App    4.441090    68Ap     4.578241    69Ap     4.785289
      70Ap     4.963994    35App    5.157191    71Ap     5.184408
      72Ap     5.307377    73Ap     5.376613    36App    5.529907
      74Ap     5.690382    75Ap     6.199719    37App    6.310261
      76Ap     6.310305    38App    6.372675    77Ap     6.375391
      39App    6.519539    78Ap     6.526232    79Ap     6.555456
      80Ap     6.634130    40App    6.724738    81Ap     6.812424
      41App    6.818451    82Ap     6.916190    42App    6.933643
      83Ap     6.967323    84Ap     7.049420    43App    7.147798
      44App    7.276106    85Ap     7.324112    45App    7.329416
      86Ap     7.360097    46App    7.441183    87Ap     7.660129
      88Ap     7.947328    89Ap     7.968976    90Ap     8.815990
      91Ap     9.386189    92Ap    16.553183

    Beta Occupied:

       1Ap   -20.656131     2Ap   -20.558587     3Ap    -1.343813
       4Ap    -1.101767     5Ap    -0.708778     6Ap    -0.581501
       7Ap    -0.542190     1App   -0.501793

    Beta Virtual:

       8Ap     0.034226     9Ap     0.046082     2App    0.047658
      10Ap     0.057646    11Ap     0.144168    12Ap     0.150986
       3App    0.160408    13Ap     0.179928    14Ap     0.210225
      15Ap     0.217784     4App    0.225909    16Ap     0.251195
      17Ap     0.274119     5App    0.282792    18Ap     0.295413
       6App    0.326979    19Ap     0.375939    20Ap     0.403320
      21Ap     0.461066    22Ap     0.561694     7App    0.632402
      23Ap     0.638989    24Ap     0.647012    25Ap     0.671908
      26Ap     0.712722     8App    0.726346     9App    0.735823
      10App    0.748669    27Ap     0.784339    28Ap     0.809300
      29Ap     0.857921    11App    0.867677    30Ap     0.918381
      12App    0.935591    31Ap     0.943841    13App    0.949624
      32Ap     0.954200    33Ap     0.973896    34Ap     1.015891
      14App    1.025087    35Ap     1.047637    36Ap     1.153871
      37Ap     1.176989    15App    1.181743    38Ap     1.219400
      16App    1.269993    39Ap     1.274567    40Ap     1.334463
      17App    1.529605    41Ap     1.560288    18App    1.602431
      42Ap     1.716021    43Ap     1.825267    44Ap     1.833197
      45Ap     2.005072    19App    2.013717    46Ap     2.013947
      20App    2.052821    47Ap     2.065718    21App    2.169879
      22App    2.179570    48Ap     2.179702    49Ap     2.203680
      50Ap     2.226780    23App    2.248236    24App    2.296645
      51Ap     2.316165    52Ap     2.343608    53Ap     2.421838
      25App    2.451354    54Ap     2.462904    26App    2.532134
      55Ap     2.543362    56Ap     2.636776    57Ap     2.678833
      27App    2.729850    58Ap     2.757057    59Ap     2.871318
      60Ap     2.944988    28App    2.947340    61Ap     3.701116
      62Ap     3.895658    29App    4.036824    30App    4.146297
      63Ap     4.179621    64Ap     4.244244    31App    4.254538
      65Ap     4.296613    32App    4.298581    66Ap     4.390278
      33App    4.393948    34App    4.442634    67Ap     4.467600
      68Ap     4.579170    69Ap     4.786696    70Ap     4.966243
      35App    5.157177    71Ap     5.184927    72Ap     5.307603
      73Ap     5.377642    36App    5.529990    74Ap     5.691027
      75Ap     6.200181    37App    6.419220    76Ap     6.419247
      38App    6.448086    77Ap     6.450861    78Ap     6.532266
      39App    6.574504    79Ap     6.605526    80Ap     6.680278
      40App    6.729032    81Ap     6.918875    41App    7.004525
      82Ap     7.005593    42App    7.041893    83Ap     7.071395
      84Ap     7.129741    43App    7.150105    44App    7.276582
      85Ap     7.324262    45App    7.330231    86Ap     7.360558
      46App    7.441623    87Ap     7.661440    88Ap     7.947731
      89Ap     7.969097    90Ap     8.818497    91Ap     9.460707
      92Ap    16.553745

    Final Occupation by Irrep:
             Ap   App
    DOCC [     7,    1 ]
    SOCC [     1,    1 ]

  @UHF Final Energy:  -150.87446003279291

   => Energetics <=

    Nuclear Repulsion Energy =             22.8492339335609174
    One-Electron Energy =                -253.4792146353974545
    Two-Electron Energy =                  79.7555206690436052
    Total Energy =                       -150.8744600327929106

  UHF NO Occupations:
  HONO-2 :    7 Ap 1.9970295
  HONO-1 :    2App 1.0000000
  HONO-0 :    8 Ap 1.0000000
  LUNO+0 :    9 Ap 0.0029705
  LUNO+1 :   10 Ap 0.0017130
  LUNO+2 :   11 Ap 0.0000024
  LUNO+3 :   12 Ap 0.0000019

Computation Completed

Properties will be evaluated at   0.000000,   0.000000,   0.000000 [a0]

Properties computed using the SCF density matrix

  Nuclear Dipole Moment: [e a0]
     X:    -2.1890      Y:     0.8308      Z:     0.0000

  Electronic Dipole Moment: [e a0]
     X:     2.7545      Y:    -0.2134      Z:     0.0000

  Dipole Moment: [e a0]
     X:     0.5655      Y:     0.6174      Z:     0.0000     Total:     0.8373

  Dipole Moment: [D]
     X:     1.4374      Y:     1.5693      Z:     0.0000     Total:     2.1281

*** tstop() called on d3-17.compute.lan at Tue Mar  9 14:57:35 2021
Module time:
	user time   =      52.47 seconds =       0.87 minutes
	system time =       2.33 seconds =       0.04 minutes
	total time  =          6 seconds =       0.10 minutes
Total time:
	user time   =      52.47 seconds =       0.87 minutes
	system time =       2.33 seconds =       0.04 minutes
	total time  =          6 seconds =       0.10 minutes
 MINTS: Wrapper to libmints.
   by Justin Turney

   Calculation information:
      Number of threads:                12
      Number of atoms:                   4
      Number of AO shells:              46
      Number of SO shells:              46
      Number of primitives:             82
      Number of atomic orbitals:       160
      Number of basis functions:       138

      Number of irreps:                  2
      Integral cutoff                 0.00e+00
      Number of functions per irrep: [  92   46 ]

 OEINTS: Overlap, kinetic, potential, dipole, and quadrupole integrals
         stored in file 35.

      Computing two-electron integrals...done
      Computed 22933666 non-zero two-electron integrals.
        Stored in file 33.

*** tstart() called on d3-17.compute.lan
*** at Tue Mar  9 14:57:39 2021

	Wfn Parameters:
	--------------------
	Wavefunction         = CCSD_T
	Number of irreps     = 2
	Number of MOs        = 138
	Number of active MOs = 136
	AO-Basis             = NONE
	Semicanonical        = false
	Reference            = UHF
	Print Level          = 1

	IRREP	# MOs	# FZDC	# DOCC	# SOCC	# VIRT	# FZVR
	-----	-----	------	------	------	------	------
	 Ap	   92	    2	    5	    1	    84	    0
	 App	   46	    0	    1	    1	    44	    0
	Transforming integrals...
	IWL integrals will be deleted.
	(OO|OO)...
	Presorting SO-basis two-electron integrals.
	Sorting File: SO Ints (nn|nn) nbuckets = 1
	Transforming the one-electron integrals and constructing Fock matrices
	Starting AA/AB first half-transformation.
	Sorting AA/AB half-transformed integrals.
	Starting BB first half-transformation.
	Sorting BB half-transformed integrals.
	First half integral transformation complete.
	Starting AA second half-transformation.
	Starting AB second half-transformation.
	Starting BB second half-transformation.
	Two-electron integral transformation complete.
	(OO|OV)...
	Starting AA second half-transformation.
	Starting AB second half-transformation.
	Starting BB second half-transformation.
	Two-electron integral transformation complete.
	(OO|VV)...
	Starting AA second half-transformation.
	Starting AB second half-transformation.
	Starting BB second half-transformation.
	Two-electron integral transformation complete.
	(OV|OO)...
	Starting AA/AB first half-transformation.
	Sorting AA/AB half-transformed integrals.
	Starting BB first half-transformation.
	Sorting BB half-transformed integrals.
	First half integral transformation complete.
	Starting AA second half-transformation.
	Starting AB second half-transformation.
	Starting BB second half-transformation.
	Two-electron integral transformation complete.
	(OV|OV)...
	Starting AA second half-transformation.
	Starting AB second half-transformation.
	Starting BB second half-transformation.
	Two-electron integral transformation complete.
	(OV|VV)...
	Starting AA second half-transformation.
	Starting AB second half-transformation.
	Starting BB second half-transformation.
	Two-electron integral transformation complete.
	(VV|OO)...
	Starting AA/AB first half-transformation.
	Sorting AA/AB half-transformed integrals.
	Starting BB first half-transformation.
	Sorting BB half-transformed integrals.
	First half integral transformation complete.
	Starting AA second half-transformation.
	Starting AB second half-transformation.
	Starting BB second half-transformation.
	Two-electron integral transformation complete.
	(VV|OV)...
	Starting AA second half-transformation.
	Starting AB second half-transformation.
	Starting BB second half-transformation.
	Two-electron integral transformation complete.
	(VV|VV)...
	Starting AA second half-transformation.
	Starting AB second half-transformation.
	Starting BB second half-transformation.
	Two-electron integral transformation complete.
	Frozen core energy     =   -125.82519309755737

	Size of irrep 0 of <AB|CD> integrals:     19.643 (MW) /    157.141 (MB)
	Size of irrep 1 of <AB|CD> integrals:     13.660 (MW) /    109.283 (MB)
	Total:                                    33.303 (MW) /    266.424 (MB)

	Size of irrep 0 of <ab|cd> integrals:     20.794 (MW) /    166.349 (MB)
	Size of irrep 1 of <ab|cd> integrals:     14.631 (MW) /    117.045 (MB)
	Total:                                    35.424 (MW) /    283.394 (MB)

	Size of irrep 0 of <Ab|Cd> integrals:     83.174 (MW) /    665.395 (MB)
	Size of irrep 1 of <Ab|Cd> integrals:     56.550 (MW) /    452.403 (MB)
	Total:                                   139.725 (MW) /   1117.798 (MB)

	Size of irrep 0 of <IA|BC> integrals:      5.323 (MW) /     42.586 (MB)
	Size of irrep 1 of <IA|BC> integrals:      3.193 (MW) /     25.547 (MB)
	Total:                                     8.517 (MW) /     68.133 (MB)

	Size of irrep 0 of <ia|bc> integrals:      4.348 (MW) /     34.780 (MB)
	Size of irrep 1 of <ia|bc> integrals:      2.372 (MW) /     18.972 (MB)
	Total:                                     6.719 (MW) /     53.752 (MB)

	Size of irrep 0 of <Ia|Bc> integrals:      5.472 (MW) /     43.776 (MB)
	Size of irrep 1 of <Ia|Bc> integrals:      3.309 (MW) /     26.470 (MB)
	Total:                                     8.781 (MW) /     70.246 (MB)

	Size of irrep 0 of <iA|bC> integrals:      4.232 (MW) /     33.853 (MB)
	Size of irrep 1 of <iA|bC> integrals:      2.286 (MW) /     18.289 (MB)
	Total:                                     6.518 (MW) /     52.142 (MB)

	Size of irrep 0 of tIjAb amplitudes:       0.292 (MW) /      2.335 (MB)
	Size of irrep 1 of tIjAb amplitudes:       0.120 (MW) /      0.963 (MB)
	Total:                                     0.412 (MW) /      3.297 (MB)

	Nuclear Rep. energy          =     22.84923393356092
	SCF energy                   =   -150.87446003279291
	One-electron energy          =    -84.33690347098315
	Two-electron (AA) energy     =     10.12288527059428
	Two-electron (BB) energy     =      5.38665351206777
	Two-electron (AB) energy     =     20.92886381952314
	Two-electron energy          =     36.43840260218520
	Reference energy             =   -150.87446003279442

*** tstop() called on d3-17.compute.lan at Tue Mar  9 14:58:18 2021
Module time:
	user time   =     230.41 seconds =       3.84 minutes
	system time =      17.97 seconds =       0.30 minutes
	total time  =         39 seconds =       0.65 minutes
Total time:
	user time   =     290.19 seconds =       4.84 minutes
	system time =      21.20 seconds =       0.35 minutes
	total time  =         49 seconds =       0.82 minutes
            **************************
            *                        *
            *        CCENERGY        *
            *                        *
            **************************

    Nuclear Rep. energy (wfn)     =   22.849233933560917
    SCF energy          (wfn)     = -150.874460032792911
    Reference energy    (file100) = -150.874460032794417

    Input parameters:
    -----------------
    Wave function   =     CCSD_T
    Reference wfn   =     UHF
    Brueckner       =     No
    Memory (Mbytes) =     4000.0
    Maxiter         =     50
    R_Convergence   =     1.0e-10
    E_Convergence   =     1.0e-10
    Restart         =     Yes
    DIIS            =     Yes
    AO Basis        =     NONE
    ABCD            =     NEW
    Cache Level     =     2
    Cache Type      =     LRU
    Print Level     =     1
    Num. of threads =     12
    # Amps to Print =     10
    Print MP2 Amps? =     No
    Analyze T2 Amps =     No
    Print Pair Ener =     No
    Local CC        =     No
    SCS-MP2         =     False
    SCSN-MP2        =     False
    SCS-CCSD        =     False

MP2 correlation energy -0.4165363495547971
                Solving CC Amplitude Equations
                ------------------------------
  Iter             Energy              RMS        T1Diag      D1Diag    New D1Diag    D2Diag
  ----     ---------------------    ---------   ----------  ----------  ----------   --------
     0        -0.416536349554797    0.000e+00    0.000000    0.000000    0.000000    0.000000
     1        -0.427281311864599    5.680e-02    0.010530    0.000000    0.000000    0.000000
     2        -0.435368568702025    1.686e-02    0.011020    0.000000    0.000000    0.000000
     3        -0.437481342605128    8.559e-03    0.012888    0.000000    0.000000    0.000000
     4        -0.437356219675958    2.532e-03    0.013254    0.000000    0.000000    0.000000
     5        -0.437341243768316    1.324e-03    0.013411    0.000000    0.000000    0.000000
     6        -0.437368508733158    5.155e-04    0.013434    0.000000    0.000000    0.000000
     7        -0.437373311770407    2.664e-04    0.013428    0.000000    0.000000    0.000000
     8        -0.437373880444068    9.578e-05    0.013424    0.000000    0.000000    0.000000
     9        -0.437375278801178    6.850e-05    0.013425    0.000000    0.000000    0.000000
    10        -0.437373736312505    5.723e-05    0.013426    0.000000    0.000000    0.000000
    11        -0.437373862598838    5.404e-05    0.013427    0.000000    0.000000    0.000000
    12        -0.437373666413598    5.234e-05    0.013429    0.000000    0.000000    0.000000
    13        -0.437373653393886    5.140e-05    0.013431    0.000000    0.000000    0.000000
    14        -0.437374549780982    5.014e-05    0.013440    0.000000    0.000000    0.000000
    15        -0.437374876744989    4.588e-05    0.013484    0.000000    0.000000    0.000000
    16        -0.437374651113789    3.332e-05    0.013600    0.000000    0.000000    0.000000
    17        -0.437374359579522    1.699e-05    0.013672    0.000000    0.000000    0.000000
    18        -0.437374215069244    7.992e-06    0.013693    0.000000    0.000000    0.000000
    19        -0.437374461270283    3.514e-06    0.013698    0.000000    0.000000    0.000000
    20        -0.437374579152345    1.550e-06    0.013699    0.000000    0.000000    0.000000
    21        -0.437374585919998    6.164e-07    0.013699    0.000000    0.000000    0.000000
    22        -0.437374586904796    2.793e-07    0.013699    0.000000    0.000000    0.000000
    23        -0.437374586228948    1.403e-07    0.013699    0.000000    0.000000    0.000000
    24        -0.437374585469424    5.386e-08    0.013699    0.000000    0.000000    0.000000
    25        -0.437374586362221    2.669e-08    0.013699    0.000000    0.000000    0.000000
    26        -0.437374586792529    1.858e-08    0.013699    0.000000    0.000000    0.000000
    27        -0.437374586920530    1.688e-08    0.013699    0.000000    0.000000    0.000000
    28        -0.437374586898649    1.628e-08    0.013699    0.000000    0.000000    0.000000
    29        -0.437374586808135    1.587e-08    0.013699    0.000000    0.000000    0.000000
    30        -0.437374586626860    1.537e-08    0.013700    0.000000    0.000000    0.000000
    31        -0.437374586652521    1.388e-08    0.013700    0.000000    0.000000    0.000000
    32        -0.437374586893305    8.907e-09    0.013700    0.000000    0.000000    0.000000
    33        -0.437374586983651    4.142e-09    0.013700    0.000000    0.000000    0.000000
    34        -0.437374587040321    1.762e-09    0.013700    0.000000    0.000000    0.000000
    35        -0.437374587047484    6.924e-10    0.013700    0.000000    0.000000    0.000000
    36        -0.437374587046658    2.781e-10    0.013700    0.000000    0.000000    0.000000

      * MP2 total energy                      = -151.290996382349221
      * CCSD total energy                     = -151.311834619840198
      * CCSD(T) total energy                     = -151.324182874978817
*** Psi4 exiting successfully. Buy a developer a beer!
