                               Psi4 1.3.2 release

  ==> Input File <==

--------------------------------------------------------------------------
memory 4 GB

molecule  {
0 3
O   -1.505246569348   -0.002008550200    0.000000000000
H   -0.553601327909    0.152263006938    0.000000000000
H   -1.890955225450    0.877943811014    0.000000000000
O    1.659275855892   -0.062903845033    0.000000000000
}
set {
basis aug-cc-pvtz
reference uhf
e_convergence 10
scf_type pk
freeze_core true
}

set ccenergy {
e_convergence 10
r_convergence 10
}

e = energy('ccsd(t)')

print_out('Stephenergy {}'.format(e))

--------------------------------------------------------------------------

    Molecular point group: cs

    Geometry (in Angstrom), charge = 0, multiplicity = 3:

       Center              X                  Y                   Z               Mass
    ------------   -----------------  -----------------  -----------------  -----------------
         O           -1.505246569348    -0.002008550200     0.000000000000    15.994914619570
         H           -0.553601327909     0.152263006938     0.000000000000     1.007825032230
         H           -1.890955225450     0.877943811014     0.000000000000     1.007825032230
         O            1.659275855892    -0.062903845033     0.000000000000    15.994914619570

  Charge       = 0
  Multiplicity = 3
  Basis Set: AUG-CC-PVTZ
    Blend: AUG-CC-PVTZ

    Orbital Energies [Eh]
    ---------------------

    Alpha Occupied:

       1Ap   -20.733160     2Ap   -20.558803     3Ap    -1.442489
       4Ap    -1.342785     5Ap    -0.733248     1App   -0.732882
       6Ap    -0.709974     7Ap    -0.634564     8Ap    -0.574948
       2App   -0.501863

    Alpha Virtual:

       9Ap     0.034224    10Ap     0.053477    11Ap     0.128140
       3App    0.132887    12Ap     0.148126    13Ap     0.160782
      14Ap     0.183944     4App    0.186811    15Ap     0.214118
      16Ap     0.241901    17Ap     0.264539     5App    0.286375
      18Ap     0.303615     6App    0.320667    19Ap     0.364403
      20Ap     0.405924    21Ap     0.460585    22Ap     0.568424
       7App    0.602519    23Ap     0.608661    24Ap     0.627513
      25Ap     0.681412     8App    0.709638    26Ap     0.714616
       9App    0.736571    10App    0.748858    27Ap     0.751704
      28Ap     0.811580    11App    0.825935    29Ap     0.836975
      12App    0.890628    30Ap     0.891021    31Ap     0.922928
      32Ap     0.945137    13App    0.947392    33Ap     0.951375
      14App    0.972226    34Ap     0.978676    35Ap     1.043537
      36Ap     1.135316    15App    1.154384    37Ap     1.169829
      38Ap     1.185258    39Ap     1.261777    16App    1.293932
      40Ap     1.316551    17App    1.527403    41Ap     1.586000
      18App    1.597800    42Ap     1.714851    43Ap     1.809852
      44Ap     1.841873    45Ap     1.977526    19App    1.977638
      46Ap     1.979073    20App    2.013134    47Ap     2.017954
      21App    2.048567    48Ap     2.061073    22App    2.122754
      49Ap     2.153692    50Ap     2.176051    23App    2.212493
      24App    2.302788    51Ap     2.310954    52Ap     2.338110
      53Ap     2.414792    25App    2.442042    54Ap     2.459895
      55Ap     2.491753    26App    2.526088    56Ap     2.628614
      57Ap     2.708814    27App    2.727494    58Ap     2.736510
      59Ap     2.859949    60Ap     2.932382    28App    2.943724
      61Ap     3.696721    62Ap     3.890722    29App    4.036008
      30App    4.062732    63Ap     4.074039    31App    4.177326
      64Ap     4.207926    65Ap     4.265289    32App    4.301465
      33App    4.391001    66Ap     4.407063    34App    4.429883
      67Ap     4.444558    68Ap     4.601408    69Ap     4.779483
      70Ap     4.958280    35App    5.154608    71Ap     5.171202
      72Ap     5.298025    73Ap     5.388211    36App    5.524791
      74Ap     5.689758    75Ap     6.188965    37App    6.312270
      76Ap     6.312301    38App    6.375417    77Ap     6.378089
      39App    6.518380    78Ap     6.519882    79Ap     6.559420
      80Ap     6.637042    40App    6.735272    81Ap     6.814360
      41App    6.819947    82Ap     6.921098    42App    6.936679
      83Ap     6.961708    84Ap     7.050949    43App    7.147875
      44App    7.272197    85Ap     7.324916    45App    7.325002
      86Ap     7.363212    46App    7.435478    87Ap     7.646278
      88Ap     7.943762    89Ap     7.961186    90Ap     8.809073
      91Ap     9.512674    92Ap    16.296610

    Beta Occupied:

       1Ap   -20.654374     2Ap   -20.558934     3Ap    -1.343360
       4Ap    -1.100021     5Ap    -0.709159     6Ap    -0.580012
       7Ap    -0.541250     1App   -0.501908

    Beta Virtual:

       8Ap     0.034370     2App    0.049290     9Ap     0.049510
      10Ap     0.055212    11Ap     0.143859    12Ap     0.152904
       3App    0.161226    13Ap     0.178158    14Ap     0.207836
      15Ap     0.225311     4App    0.227142    16Ap     0.250666
      17Ap     0.265813     5App    0.286583    18Ap     0.305753
       6App    0.324407    19Ap     0.368296    20Ap     0.416848
      21Ap     0.461812    22Ap     0.571994    23Ap     0.628264
       7App    0.634915    24Ap     0.640430    25Ap     0.686157
      26Ap     0.715263     8App    0.721734     9App    0.739660
      10App    0.750555    27Ap     0.768413    28Ap     0.817954
      29Ap     0.867128    11App    0.868979    30Ap     0.919912
      12App    0.941770    31Ap     0.941955    13App    0.949578
      32Ap     0.952724    33Ap     0.969968    34Ap     1.017531
      14App    1.020349    35Ap     1.045826    15App    1.157557
      36Ap     1.162928    37Ap     1.173365    38Ap     1.216235
      39Ap     1.264890    16App    1.304531    40Ap     1.325297
      17App    1.528136    41Ap     1.588300    18App    1.599232
      42Ap     1.741325    43Ap     1.815292    44Ap     1.852347
      45Ap     1.987057    46Ap     2.015605    19App    2.015615
      20App    2.053832    47Ap     2.065751    21App    2.170930
      48Ap     2.176349    22App    2.179624    49Ap     2.194584
      50Ap     2.244739    23App    2.249737    24App    2.306115
      51Ap     2.316394    52Ap     2.360636    53Ap     2.419290
      25App    2.444716    54Ap     2.460698    55Ap     2.498082
      26App    2.534590    56Ap     2.635814    57Ap     2.725226
      27App    2.728801    58Ap     2.740556    59Ap     2.861759
      60Ap     2.936780    28App    2.944358    61Ap     3.697405
      62Ap     3.893112    29App    4.038873    30App    4.146150
      63Ap     4.192620    64Ap     4.243211    31App    4.262328
      65Ap     4.277059    32App    4.301518    33App    4.391071
      66Ap     4.410856    34App    4.430571    67Ap     4.488811
      68Ap     4.603866    69Ap     4.781136    70Ap     4.960284
      35App    5.154595    71Ap     5.171507    72Ap     5.298270
      73Ap     5.389413    36App    5.524850    74Ap     5.690107
      75Ap     6.190192    76Ap     6.421125    37App    6.421129
      38App    6.450624    77Ap     6.453308    78Ap     6.534591
      39App    6.572288    79Ap     6.600617    80Ap     6.682006
      40App    6.741140    81Ap     6.923142    41App    7.005087
      82Ap     7.006674    42App    7.045768    83Ap     7.068429
      84Ap     7.130697    43App    7.150490    44App    7.272468
      85Ap     7.325244    45App    7.325696    86Ap     7.363961
      46App    7.435893    87Ap     7.647131    88Ap     7.944630
      89Ap     7.961661    90Ap     8.810657    91Ap     9.587664
      92Ap    16.296888

    Final Occupation by Irrep:
             Ap   App
    DOCC [     7,    1 ]
    SOCC [     1,    1 ]

  @UHF Final Energy:  -150.87443434865537

   => Energetics <=

    Nuclear Repulsion Energy =             22.9022071271874239
    One-Electron Energy =                -253.5995489416206965
    Two-Electron Energy =                  79.8229074657779165
    Total Energy =                       -150.8744343486553703

  UHF NO Occupations:
  HONO-2 :    7 Ap 1.9970280
  HONO-1 :    2App 1.0000000
  HONO-0 :    8 Ap 1.0000000
  LUNO+0 :    9 Ap 0.0029720
  LUNO+1 :   10 Ap 0.0017163
  LUNO+2 :   11 Ap 0.0000024
  LUNO+3 :   12 Ap 0.0000018

Computation Completed

Properties will be evaluated at   0.000000,   0.000000,   0.000000 [a0]

Properties computed using the SCF density matrix

  Nuclear Dipole Moment: [e a0]
     X:    -2.2910      Y:     0.9655      Z:     0.0000

  Electronic Dipole Moment: [e a0]
     X:     2.7577      Y:    -0.2918      Z:     0.0000

  Dipole Moment: [e a0]
     X:     0.4667      Y:     0.6737      Z:     0.0000     Total:     0.8196

  Dipole Moment: [D]
     X:     1.1863      Y:     1.7124      Z:     0.0000     Total:     2.0832

*** tstop() called on c1-11.compute.lan at Tue Mar  9 15:30:09 2021
Module time:
	user time   =      64.82 seconds =       1.08 minutes
	system time =       3.32 seconds =       0.06 minutes
	total time  =          7 seconds =       0.12 minutes
Total time:
	user time   =      64.82 seconds =       1.08 minutes
	system time =       3.32 seconds =       0.06 minutes
	total time  =          7 seconds =       0.12 minutes
 MINTS: Wrapper to libmints.
   by Justin Turney

   Calculation information:
      Number of threads:                12
      Number of atoms:                   4
      Number of AO shells:              46
      Number of SO shells:              46
      Number of primitives:             82
      Number of atomic orbitals:       160
      Number of basis functions:       138

      Number of irreps:                  2
      Integral cutoff                 0.00e+00
      Number of functions per irrep: [  92   46 ]

 OEINTS: Overlap, kinetic, potential, dipole, and quadrupole integrals
         stored in file 35.

      Computing two-electron integrals...done
      Computed 22950470 non-zero two-electron integrals.
        Stored in file 33.

*** tstart() called on c1-11.compute.lan
*** at Tue Mar  9 15:30:12 2021

	Wfn Parameters:
	--------------------
	Wavefunction         = CCSD_T
	Number of irreps     = 2
	Number of MOs        = 138
	Number of active MOs = 136
	AO-Basis             = NONE
	Semicanonical        = false
	Reference            = UHF
	Print Level          = 1

	IRREP	# MOs	# FZDC	# DOCC	# SOCC	# VIRT	# FZVR
	-----	-----	------	------	------	------	------
	 Ap	   92	    2	    5	    1	    84	    0
	 App	   46	    0	    1	    1	    44	    0
	Transforming integrals...
	IWL integrals will be deleted.
	(OO|OO)...
	Presorting SO-basis two-electron integrals.
	Sorting File: SO Ints (nn|nn) nbuckets = 1
	Transforming the one-electron integrals and constructing Fock matrices
	Starting AA/AB first half-transformation.
	Sorting AA/AB half-transformed integrals.
	Starting BB first half-transformation.
	Sorting BB half-transformed integrals.
	First half integral transformation complete.
	Starting AA second half-transformation.
	Starting AB second half-transformation.
	Starting BB second half-transformation.
	Two-electron integral transformation complete.
	(OO|OV)...
	Starting AA second half-transformation.
	Starting AB second half-transformation.
	Starting BB second half-transformation.
	Two-electron integral transformation complete.
	(OO|VV)...
	Starting AA second half-transformation.
	Starting AB second half-transformation.
	Starting BB second half-transformation.
	Two-electron integral transformation complete.
	(OV|OO)...
	Starting AA/AB first half-transformation.
	Sorting AA/AB half-transformed integrals.
	Starting BB first half-transformation.
	Sorting BB half-transformed integrals.
	First half integral transformation complete.
	Starting AA second half-transformation.
	Starting AB second half-transformation.
	Starting BB second half-transformation.
	Two-electron integral transformation complete.
	(OV|OV)...
	Starting AA second half-transformation.
	Starting AB second half-transformation.
	Starting BB second half-transformation.
	Two-electron integral transformation complete.
	(OV|VV)...
	Starting AA second half-transformation.
	Starting AB second half-transformation.
	Starting BB second half-transformation.
	Two-electron integral transformation complete.
	(VV|OO)...
	Starting AA/AB first half-transformation.
	Sorting AA/AB half-transformed integrals.
	Starting BB first half-transformation.
	Sorting BB half-transformed integrals.
	First half integral transformation complete.
	Starting AA second half-transformation.
	Starting AB second half-transformation.
	Starting BB second half-transformation.
	Two-electron integral transformation complete.
	(VV|OV)...
	Starting AA second half-transformation.
	Starting AB second half-transformation.
	Starting BB second half-transformation.
	Two-electron integral transformation complete.
	(VV|VV)...
	Starting AA second half-transformation.
	Starting AB second half-transformation.
	Starting BB second half-transformation.
	Two-electron integral transformation complete.
	Frozen core energy     =   -125.85585236258682

	Size of irrep 0 of <AB|CD> integrals:     19.643 (MW) /    157.141 (MB)
	Size of irrep 1 of <AB|CD> integrals:     13.660 (MW) /    109.283 (MB)
	Total:                                    33.303 (MW) /    266.424 (MB)

	Size of irrep 0 of <ab|cd> integrals:     20.794 (MW) /    166.349 (MB)
	Size of irrep 1 of <ab|cd> integrals:     14.631 (MW) /    117.045 (MB)
	Total:                                    35.424 (MW) /    283.394 (MB)

	Size of irrep 0 of <Ab|Cd> integrals:     83.174 (MW) /    665.395 (MB)
	Size of irrep 1 of <Ab|Cd> integrals:     56.550 (MW) /    452.403 (MB)
	Total:                                   139.725 (MW) /   1117.798 (MB)

	Size of irrep 0 of <IA|BC> integrals:      5.323 (MW) /     42.586 (MB)
	Size of irrep 1 of <IA|BC> integrals:      3.193 (MW) /     25.547 (MB)
	Total:                                     8.517 (MW) /     68.133 (MB)

	Size of irrep 0 of <ia|bc> integrals:      4.348 (MW) /     34.780 (MB)
	Size of irrep 1 of <ia|bc> integrals:      2.372 (MW) /     18.972 (MB)
	Total:                                     6.719 (MW) /     53.752 (MB)

	Size of irrep 0 of <Ia|Bc> integrals:      5.472 (MW) /     43.776 (MB)
	Size of irrep 1 of <Ia|Bc> integrals:      3.309 (MW) /     26.470 (MB)
	Total:                                     8.781 (MW) /     70.246 (MB)

	Size of irrep 0 of <iA|bC> integrals:      4.232 (MW) /     33.853 (MB)
	Size of irrep 1 of <iA|bC> integrals:      2.286 (MW) /     18.289 (MB)
	Total:                                     6.518 (MW) /     52.142 (MB)

	Size of irrep 0 of tIjAb amplitudes:       0.292 (MW) /      2.335 (MB)
	Size of irrep 1 of tIjAb amplitudes:       0.120 (MW) /      0.963 (MB)
	Total:                                     0.412 (MW) /      3.297 (MB)

	Nuclear Rep. energy          =     22.90220712718742
	SCF energy                   =   -150.87443434865537
	One-electron energy          =    -84.39311454596601
	Two-electron (AA) energy     =     10.13548647842602
	Two-electron (BB) energy     =      5.39161767458076
	Two-electron (AB) energy     =     20.94522127970202
	Two-electron energy          =     36.47232543270880
	Reference energy             =   -150.87443434865662

*** tstop() called on c1-11.compute.lan at Tue Mar  9 15:30:53 2021
Module time:
	user time   =     106.96 seconds =       1.78 minutes
	system time =      26.17 seconds =       0.44 minutes
	total time  =         41 seconds =       0.68 minutes
Total time:
	user time   =     177.89 seconds =       2.96 minutes
	system time =      30.26 seconds =       0.50 minutes
	total time  =         51 seconds =       0.85 minutes
            **************************
            *                        *
            *        CCENERGY        *
            *                        *
            **************************

    Nuclear Rep. energy (wfn)     =   22.902207127187424
    SCF energy          (wfn)     = -150.874434348655370
    Reference energy    (file100) = -150.874434348656621

    Input parameters:
    -----------------
    Wave function   =     CCSD_T
    Reference wfn   =     UHF
    Brueckner       =     No
    Memory (Mbytes) =     4000.0
    Maxiter         =     50
    R_Convergence   =     1.0e-10
    E_Convergence   =     1.0e-10
    Restart         =     Yes
    DIIS            =     Yes
    AO Basis        =     NONE
    ABCD            =     NEW
    Cache Level     =     2
    Cache Type      =     LRU
    Print Level     =     1
    Num. of threads =     12
    # Amps to Print =     10
    Print MP2 Amps? =     No
    Analyze T2 Amps =     No
    Print Pair Ener =     No
    Local CC        =     No
    SCS-MP2         =     False
    SCSN-MP2        =     False
    SCS-CCSD        =     False

MP2 correlation energy -0.4166503933885715
                Solving CC Amplitude Equations
                ------------------------------
  Iter             Energy              RMS        T1Diag      D1Diag    New D1Diag    D2Diag
  ----     ---------------------    ---------   ----------  ----------  ----------   --------
     0        -0.416650393388572    0.000e+00    0.000000    0.000000    0.000000    0.000000
     1        -0.427358291413591    5.691e-02    0.010558    0.000000    0.000000    0.000000
     2        -0.435451265123336    1.690e-02    0.011037    0.000000    0.000000    0.000000
     3        -0.437574769846006    8.580e-03    0.012910    0.000000    0.000000    0.000000
     4        -0.437448905143187    2.536e-03    0.013277    0.000000    0.000000    0.000000
     5        -0.437434420030889    1.321e-03    0.013433    0.000000    0.000000    0.000000
     6        -0.437461649084767    5.151e-04    0.013456    0.000000    0.000000    0.000000
     7        -0.437466288453080    2.650e-04    0.013450    0.000000    0.000000    0.000000
     8        -0.437466890320402    9.944e-05    0.013446    0.000000    0.000000    0.000000
     9        -0.437468265686233    7.403e-05    0.013447    0.000000    0.000000    0.000000
    10        -0.437466704472883    6.383e-05    0.013448    0.000000    0.000000    0.000000
    11        -0.437466851235035    6.096e-05    0.013449    0.000000    0.000000    0.000000
    12        -0.437466566352869    5.926e-05    0.013451    0.000000    0.000000    0.000000
    13        -0.437466560200060    5.813e-05    0.013455    0.000000    0.000000    0.000000
    14        -0.437467722166246    5.629e-05    0.013472    0.000000    0.000000    0.000000
    15        -0.437468097031374    4.988e-05    0.013543    0.000000    0.000000    0.000000
    16        -0.437467873245590    3.347e-05    0.013681    0.000000    0.000000    0.000000
    17        -0.437467528495564    1.618e-05    0.013750    0.000000    0.000000    0.000000
    18        -0.437467397808425    7.594e-06    0.013767    0.000000    0.000000    0.000000
    19        -0.437467656638090    3.357e-06    0.013772    0.000000    0.000000    0.000000
    20        -0.437467768557522    1.504e-06    0.013773    0.000000    0.000000    0.000000
    21        -0.437467776534019    5.925e-07    0.013773    0.000000    0.000000    0.000000
    22        -0.437467777845724    2.810e-07    0.013773    0.000000    0.000000    0.000000
    23        -0.437467776757193    1.459e-07    0.013773    0.000000    0.000000    0.000000
    24        -0.437467776076830    6.045e-08    0.013773    0.000000    0.000000    0.000000
    25        -0.437467777039356    3.292e-08    0.013773    0.000000    0.000000    0.000000
    26        -0.437467777498304    2.547e-08    0.013773    0.000000    0.000000    0.000000
    27        -0.437467777656190    2.384e-08    0.013773    0.000000    0.000000    0.000000
    28        -0.437467777605161    2.310e-08    0.013773    0.000000    0.000000    0.000000
    29        -0.437467777443866    2.244e-08    0.013773    0.000000    0.000000    0.000000
    30        -0.437467777178114    2.138e-08    0.013773    0.000000    0.000000    0.000000
    31        -0.437467777366281    1.816e-08    0.013773    0.000000    0.000000    0.000000
    32        -0.437467777710208    9.615e-09    0.013773    0.000000    0.000000    0.000000
    33        -0.437467777813162    4.210e-09    0.013773    0.000000    0.000000    0.000000
    34        -0.437467777866062    1.720e-09    0.013773    0.000000    0.000000    0.000000
    35        -0.437467777872949    6.763e-10    0.013773    0.000000    0.000000    0.000000
    36        -0.437467777872702    2.895e-10    0.013773    0.000000    0.000000    0.000000

      * MP2 total energy                      = -151.291084742045200
      * CCSD total energy                     = -151.311902126528594
      * CCSD(T) total energy                     = -151.324262173746035
*** Psi4 exiting successfully. Buy a developer a beer!
