                               Psi4 1.3.2 release

  ==> Input File <==

--------------------------------------------------------------------------
memory 4 GB

molecule  {
0 3
O   -1.643497874596   -0.028688748142    0.000000000000
H   -0.693497874596   -0.030887145154    0.000000000000
H   -1.893166063541    0.940709846298    0.000000000000
O    1.806481218291   -0.028638353309    0.000000000000
}
set {
basis aug-cc-pvtz
reference uhf
e_convergence 10
scf_type pk
freeze_core true
}

set ccenergy {
e_convergence 10
r_convergence 10
}

e = energy('ccsd(t)')

print_out('Stephenergy {}'.format(e))

--------------------------------------------------------------------------

    Molecular point group: cs

    Geometry (in Angstrom), charge = 0, multiplicity = 3:

       Center              X                  Y                   Z               Mass
    ------------   -----------------  -----------------  -----------------  -----------------
         O           -1.643497874596    -0.028688748142     0.000000000000    15.994914619570
         H           -0.693497874596    -0.030887145154     0.000000000000     1.007825032230
         H           -1.893166063541     0.940709846298     0.000000000000     1.007825032230
         O            1.806481218291    -0.028638353309     0.000000000000    15.994914619570

  Charge       = 0
  Multiplicity = 3
  Basis Set: AUG-CC-PVTZ
    Blend: AUG-CC-PVTZ

    Orbital Energies [Eh]
    ---------------------

    Alpha Occupied:

       1Ap   -20.730000     2Ap   -20.563934     3Ap    -1.438797
       4Ap    -1.339088     5Ap    -0.729736     1App   -0.729658
       6Ap    -0.703639     7Ap    -0.631734     8Ap    -0.575002
       2App   -0.503246

    Alpha Virtual:

       9Ap     0.033709    10Ap     0.053427    11Ap     0.129053
       3App    0.132799    12Ap     0.147001    13Ap     0.159648
      14Ap     0.181663     4App    0.183216    15Ap     0.206795
      16Ap     0.235198    17Ap     0.266589     5App    0.279735
      18Ap     0.288563     6App    0.318978    19Ap     0.363884
      20Ap     0.385364    21Ap     0.447691    22Ap     0.554431
       7App    0.604047    23Ap     0.608437    24Ap     0.642167
      25Ap     0.665504     8App    0.685083    26Ap     0.711838
       9App    0.734131    10App    0.746450    27Ap     0.753323
      28Ap     0.788583    11App    0.825050    29Ap     0.834118
      30Ap     0.853737    12App    0.874089    31Ap     0.913865
      32Ap     0.921143    13App    0.940168    33Ap     0.947922
      14App    0.967267    34Ap     0.976057    35Ap     1.025549
      36Ap     1.082661    15App    1.157865    37Ap     1.167318
      16App    1.209161    38Ap     1.223201    39Ap     1.254575
      40Ap     1.283627    17App    1.512314    41Ap     1.532210
      18App    1.586361    42Ap     1.599479    43Ap     1.791765
      44Ap     1.815879    45Ap     1.968521    19App    1.979313
      46Ap     1.979380    20App    2.009464    47Ap     2.012399
      21App    2.033785    48Ap     2.035943    22App    2.086782
      49Ap     2.115560    50Ap     2.133335    23App    2.159996
      51Ap     2.227030    24App    2.278121    52Ap     2.331442
      53Ap     2.369821    25App    2.423483    54Ap     2.426318
      26App    2.457058    55Ap     2.482721    56Ap     2.549225
      57Ap     2.682502    27App    2.723832    58Ap     2.728145
      59Ap     2.844269    60Ap     2.916828    28App    2.918936
      61Ap     3.635231    62Ap     3.811637    29App    4.013350
      30App    4.051744    63Ap     4.066853    31App    4.132236
      64Ap     4.177035    65Ap     4.245645    32App    4.293290
      66Ap     4.360176    33App    4.381115    34App    4.416992
      67Ap     4.426868    68Ap     4.545648    69Ap     4.725691
      70Ap     4.888396    35App    5.105721    71Ap     5.118755
      72Ap     5.272039    73Ap     5.356848    36App    5.495967
      74Ap     5.672709    75Ap     6.170944    37App    6.314812
      76Ap     6.314835    38App    6.366595    77Ap     6.367830
      39App    6.462618    78Ap     6.475922    79Ap     6.541552
      80Ap     6.594139    40App    6.713170    81Ap     6.813605
      41App    6.818792    82Ap     6.885178    42App    6.924725
      83Ap     6.948866    84Ap     7.038798    43App    7.107214
      44App    7.240764    85Ap     7.290208    45App    7.323886
      86Ap     7.351913    46App    7.409536    87Ap     7.620129
      88Ap     7.885504    89Ap     7.947224    90Ap     8.726577
      91Ap     8.946903    92Ap    16.029062

    Beta Occupied:

       1Ap   -20.651266     2Ap   -20.563999     3Ap    -1.339355
       4Ap    -1.096256     5Ap    -0.703404     6Ap    -0.577389
       7Ap    -0.539816     1App   -0.503277

    Beta Virtual:

       8Ap     0.033649     9Ap     0.047757     2App    0.050604
      10Ap     0.058943    11Ap     0.142846    12Ap     0.151657
       3App    0.160322    13Ap     0.178236    14Ap     0.207032
      15Ap     0.217711     4App    0.226964    16Ap     0.243818
      17Ap     0.269428     5App    0.279902    18Ap     0.291338
       6App    0.320372    19Ap     0.367210    20Ap     0.392018
      21Ap     0.448182    22Ap     0.556488     7App    0.636972
      23Ap     0.638071    24Ap     0.646208    25Ap     0.668746
       8App    0.699112    26Ap     0.712490     9App    0.734930
      10App    0.747418    27Ap     0.766563    28Ap     0.800308
      29Ap     0.841208    11App    0.858111    30Ap     0.911561
      31Ap     0.923569    12App    0.925779    32Ap     0.944437
      13App    0.946519    33Ap     0.967964    34Ap     1.006114
      14App    1.021534    35Ap     1.028937    36Ap     1.090795
      15App    1.161824    37Ap     1.170422    16App    1.217096
      38Ap     1.256494    39Ap     1.271348    40Ap     1.288722
      17App    1.512821    41Ap     1.550538    18App    1.587556
      42Ap     1.622748    43Ap     1.794538    44Ap     1.817650
      45Ap     1.971502    19App    2.017483    46Ap     2.017530
      20App    2.037737    47Ap     2.041054    21App    2.120507
      48Ap     2.157354    49Ap     2.166246    22App    2.179420
      50Ap     2.180393    23App    2.212911    51Ap     2.269621
      24App    2.279473    52Ap     2.345226    53Ap     2.384586
      25App    2.426733    54Ap     2.428144    26App    2.464681
      55Ap     2.489680    56Ap     2.554597    57Ap     2.689033
      27App    2.724306    58Ap     2.728595    59Ap     2.848590
      60Ap     2.918647    28App    2.919527    61Ap     3.635397
      62Ap     3.812673    29App    4.013579    30App    4.115790
      63Ap     4.165638    31App    4.238409    64Ap     4.238414
      65Ap     4.255946    32App    4.293406    66Ap     4.381130
      33App    4.381312    34App    4.418708    67Ap     4.452993
      68Ap     4.546668    69Ap     4.726593    70Ap     4.889099
      35App    5.105724    71Ap     5.119008    72Ap     5.272224
      73Ap     5.357843    36App    5.495971    74Ap     5.673066
      75Ap     6.171749    37App    6.423764    76Ap     6.423782
      38App    6.442715    77Ap     6.444211    39App    6.518529
      78Ap     6.518579    79Ap     6.554947    80Ap     6.640862
      40App    6.715577    81Ap     6.883083    41App    7.006211
      82Ap     7.006674    42App    7.034412    83Ap     7.058501
      43App    7.108806    84Ap     7.122083    44App    7.240957
      85Ap     7.290470    45App    7.324569    86Ap     7.352128
      46App    7.410054    87Ap     7.622656    88Ap     7.885649
      89Ap     7.947901    90Ap     8.727053    91Ap     9.024027
      92Ap    16.029412

    Final Occupation by Irrep:
             Ap   App
    DOCC [     7,    1 ]
    SOCC [     1,    1 ]

  @UHF Final Energy:  -150.87204015191975

   => Energetics <=

    Nuclear Repulsion Energy =             21.6450213889156018
    One-Electron Energy =                -251.1145265649268481
    Two-Electron Energy =                  78.5974650240914769
    Total Energy =                       -150.8720401519197480

  UHF NO Occupations:
  HONO-2 :    7 Ap 1.9970427
  HONO-1 :    2App 1.0000000
  HONO-0 :    8 Ap 1.0000000
  LUNO+0 :    9 Ap 0.0029573
  LUNO+1 :   10 Ap 0.0017365
  LUNO+2 :   11 Ap 0.0000024
  LUNO+3 :   12 Ap 0.0000005

Computation Completed

Properties will be evaluated at   0.000000,   0.000000,   0.000000 [a0]

Properties computed using the SCF density matrix

  Nuclear Dipole Moment: [e a0]
     X:    -2.4241      Y:     0.8527      Z:     0.0000

  Electronic Dipole Moment: [e a0]
     X:     2.9571      Y:    -0.2289      Z:     0.0000

  Dipole Moment: [e a0]
     X:     0.5330      Y:     0.6238      Z:     0.0000     Total:     0.8205

  Dipole Moment: [D]
     X:     1.3547      Y:     1.5855      Z:     0.0000     Total:     2.0854

*** tstop() called on d1-14.compute.lan at Tue Mar  9 14:24:06 2021
Module time:
	user time   =      57.29 seconds =       0.95 minutes
	system time =       3.63 seconds =       0.06 minutes
	total time  =          7 seconds =       0.12 minutes
Total time:
	user time   =      57.29 seconds =       0.95 minutes
	system time =       3.63 seconds =       0.06 minutes
	total time  =          7 seconds =       0.12 minutes
 MINTS: Wrapper to libmints.
   by Justin Turney

   Calculation information:
      Number of threads:                12
      Number of atoms:                   4
      Number of AO shells:              46
      Number of SO shells:              46
      Number of primitives:             82
      Number of atomic orbitals:       160
      Number of basis functions:       138

      Number of irreps:                  2
      Integral cutoff                 0.00e+00
      Number of functions per irrep: [  92   46 ]

 OEINTS: Overlap, kinetic, potential, dipole, and quadrupole integrals
         stored in file 35.

      Computing two-electron integrals...done
      Computed 22936263 non-zero two-electron integrals.
        Stored in file 33.

*** tstart() called on d1-14.compute.lan
*** at Tue Mar  9 14:24:10 2021

	Wfn Parameters:
	--------------------
	Wavefunction         = CCSD_T
	Number of irreps     = 2
	Number of MOs        = 138
	Number of active MOs = 136
	AO-Basis             = NONE
	Semicanonical        = false
	Reference            = UHF
	Print Level          = 1

	IRREP	# MOs	# FZDC	# DOCC	# SOCC	# VIRT	# FZVR
	-----	-----	------	------	------	------	------
	 Ap	   92	    2	    5	    1	    84	    0
	 App	   46	    0	    1	    1	    44	    0
	Transforming integrals...
	IWL integrals will be deleted.
	(OO|OO)...
	Presorting SO-basis two-electron integrals.
	Sorting File: SO Ints (nn|nn) nbuckets = 1
	Transforming the one-electron integrals and constructing Fock matrices
	Starting AA/AB first half-transformation.
	Sorting AA/AB half-transformed integrals.
	Starting BB first half-transformation.
	Sorting BB half-transformed integrals.
	First half integral transformation complete.
	Starting AA second half-transformation.
	Starting AB second half-transformation.
	Starting BB second half-transformation.
	Two-electron integral transformation complete.
	(OO|OV)...
	Starting AA second half-transformation.
	Starting AB second half-transformation.
	Starting BB second half-transformation.
	Two-electron integral transformation complete.
	(OO|VV)...
	Starting AA second half-transformation.
	Starting AB second half-transformation.
	Starting BB second half-transformation.
	Two-electron integral transformation complete.
	(OV|OO)...
	Starting AA/AB first half-transformation.
	Sorting AA/AB half-transformed integrals.
	Starting BB first half-transformation.
	Sorting BB half-transformed integrals.
	First half integral transformation complete.
	Starting AA second half-transformation.
	Starting AB second half-transformation.
	Starting BB second half-transformation.
	Two-electron integral transformation complete.
	(OV|OV)...
	Starting AA second half-transformation.
	Starting AB second half-transformation.
	Starting BB second half-transformation.
	Two-electron integral transformation complete.
	(OV|VV)...
	Starting AA second half-transformation.
	Starting AB second half-transformation.
	Starting BB second half-transformation.
	Two-electron integral transformation complete.
	(VV|OO)...
	Starting AA/AB first half-transformation.
	Sorting AA/AB half-transformed integrals.
	Starting BB first half-transformation.
	Sorting BB half-transformed integrals.
	First half integral transformation complete.
	Starting AA second half-transformation.
	Starting AB second half-transformation.
	Starting BB second half-transformation.
	Two-electron integral transformation complete.
	(VV|OV)...
	Starting AA second half-transformation.
	Starting AB second half-transformation.
	Starting BB second half-transformation.
	Two-electron integral transformation complete.
	(VV|VV)...
	Starting AA second half-transformation.
	Starting AB second half-transformation.
	Starting BB second half-transformation.
	Two-electron integral transformation complete.
	Frozen core energy     =   -125.37717978234591

	Size of irrep 0 of <AB|CD> integrals:     19.643 (MW) /    157.141 (MB)
	Size of irrep 1 of <AB|CD> integrals:     13.660 (MW) /    109.283 (MB)
	Total:                                    33.303 (MW) /    266.424 (MB)

	Size of irrep 0 of <ab|cd> integrals:     20.794 (MW) /    166.349 (MB)
	Size of irrep 1 of <ab|cd> integrals:     14.631 (MW) /    117.045 (MB)
	Total:                                    35.424 (MW) /    283.394 (MB)

	Size of irrep 0 of <Ab|Cd> integrals:     83.174 (MW) /    665.395 (MB)
	Size of irrep 1 of <Ab|Cd> integrals:     56.550 (MW) /    452.403 (MB)
	Total:                                   139.725 (MW) /   1117.798 (MB)

	Size of irrep 0 of <IA|BC> integrals:      5.323 (MW) /     42.586 (MB)
	Size of irrep 1 of <IA|BC> integrals:      3.193 (MW) /     25.547 (MB)
	Total:                                     8.517 (MW) /     68.133 (MB)

	Size of irrep 0 of <ia|bc> integrals:      4.348 (MW) /     34.780 (MB)
	Size of irrep 1 of <ia|bc> integrals:      2.372 (MW) /     18.972 (MB)
	Total:                                     6.719 (MW) /     53.752 (MB)

	Size of irrep 0 of <Ia|Bc> integrals:      5.472 (MW) /     43.776 (MB)
	Size of irrep 1 of <Ia|Bc> integrals:      3.309 (MW) /     26.470 (MB)
	Total:                                     8.781 (MW) /     70.246 (MB)

	Size of irrep 0 of <iA|bC> integrals:      4.232 (MW) /     33.853 (MB)
	Size of irrep 1 of <iA|bC> integrals:      2.286 (MW) /     18.289 (MB)
	Total:                                     6.518 (MW) /     52.142 (MB)

	Size of irrep 0 of tIjAb amplitudes:       0.292 (MW) /      2.335 (MB)
	Size of irrep 1 of tIjAb amplitudes:       0.120 (MW) /      0.963 (MB)
	Total:                                     0.412 (MW) /      3.297 (MB)

	Nuclear Rep. energy          =     21.64502138891560
	SCF energy                   =   -150.87204015191975
	One-electron energy          =    -82.86936864431391
	Two-electron (AA) energy     =      9.89963593209908
	Two-electron (BB) energy     =      5.26349275544191
	Two-electron (AB) energy     =     20.56635819828286
	Two-electron energy          =     35.72948688582385
	Reference energy             =   -150.87204015192037

*** tstop() called on d1-14.compute.lan at Tue Mar  9 14:25:20 2021
Module time:
	user time   =     397.19 seconds =       6.62 minutes
	system time =      56.06 seconds =       0.93 minutes
	total time  =         70 seconds =       1.17 minutes
Total time:
	user time   =     461.06 seconds =       7.68 minutes
	system time =      60.61 seconds =       1.01 minutes
	total time  =         81 seconds =       1.35 minutes
            **************************
            *                        *
            *        CCENERGY        *
            *                        *
            **************************

    Nuclear Rep. energy (wfn)     =   21.645021388915602
    SCF energy          (wfn)     = -150.872040151919748
    Reference energy    (file100) = -150.872040151920373

    Input parameters:
    -----------------
    Wave function   =     CCSD_T
    Reference wfn   =     UHF
    Brueckner       =     No
    Memory (Mbytes) =     4000.0
    Maxiter         =     50
    R_Convergence   =     1.0e-10
    E_Convergence   =     1.0e-10
    Restart         =     Yes
    DIIS            =     Yes
    AO Basis        =     NONE
    ABCD            =     NEW
    Cache Level     =     2
    Cache Type      =     LRU
    Print Level     =     1
    Num. of threads =     12
    # Amps to Print =     10
    Print MP2 Amps? =     No
    Analyze T2 Amps =     No
    Print Pair Ener =     No
    Local CC        =     No
    SCS-MP2         =     False
    SCSN-MP2        =     False
    SCS-CCSD        =     False

MP2 correlation energy -0.4170602498207773
                Solving CC Amplitude Equations
                ------------------------------
  Iter             Energy              RMS        T1Diag      D1Diag    New D1Diag    D2Diag
  ----     ---------------------    ---------   ----------  ----------  ----------   --------
     0        -0.417060249820777    0.000e+00    0.000000    0.000000    0.000000    0.000000
     1        -0.427547746080025    5.750e-02    0.010613    0.000000    0.000000    0.000000
     2        -0.435770428796968    1.720e-02    0.011073    0.000000    0.000000    0.000000
     3        -0.437948691293307    8.648e-03    0.012949    0.000000    0.000000    0.000000
     4        -0.437822759014695    2.543e-03    0.013303    0.000000    0.000000    0.000000
     5        -0.437810897538901    1.281e-03    0.013450    0.000000    0.000000    0.000000
     6        -0.437836667463472    5.069e-04    0.013465    0.000000    0.000000    0.000000
     7        -0.437840666801172    2.276e-04    0.013454    0.000000    0.000000    0.000000
     8        -0.437841534723486    7.700e-05    0.013448    0.000000    0.000000    0.000000
     9        -0.437842778518991    4.529e-05    0.013448    0.000000    0.000000    0.000000
    10        -0.437841581461994    3.676e-05    0.013448    0.000000    0.000000    0.000000
    11        -0.437841691383566    3.533e-05    0.013448    0.000000    0.000000    0.000000
    12        -0.437841556767730    3.474e-05    0.013449    0.000000    0.000000    0.000000
    13        -0.437841468635634    3.432e-05    0.013450    0.000000    0.000000    0.000000
    14        -0.437841885721062    3.340e-05    0.013456    0.000000    0.000000    0.000000
    15        -0.437841904267228    3.102e-05    0.013469    0.000000    0.000000    0.000000
    16        -0.437841899028730    2.578e-05    0.013546    0.000000    0.000000    0.000000
    17        -0.437841907191952    1.512e-05    0.013599    0.000000    0.000000    0.000000
    18        -0.437841838972702    6.548e-06    0.013623    0.000000    0.000000    0.000000
    19        -0.437841983961379    2.943e-06    0.013628    0.000000    0.000000    0.000000
    20        -0.437842063770344    1.380e-06    0.013629    0.000000    0.000000    0.000000
    21        -0.437842069211696    5.851e-07    0.013629    0.000000    0.000000    0.000000
    22        -0.437842069754624    2.328e-07    0.013630    0.000000    0.000000    0.000000
    23        -0.437842070542970    9.996e-08    0.013630    0.000000    0.000000    0.000000
    24        -0.437842070489635    4.253e-08    0.013630    0.000000    0.000000    0.000000
    25        -0.437842071161641    2.254e-08    0.013630    0.000000    0.000000    0.000000
    26        -0.437842071573174    8.192e-09    0.013630    0.000000    0.000000    0.000000
    27        -0.437842071647990    3.443e-09    0.013630    0.000000    0.000000    0.000000
    28        -0.437842071672790    2.518e-09    0.013630    0.000000    0.000000    0.000000
    29        -0.437842071674583    2.283e-09    0.013630    0.000000    0.000000    0.000000
    30        -0.437842071660218    2.120e-09    0.013630    0.000000    0.000000    0.000000
    31        -0.437842071641377    1.960e-09    0.013630    0.000000    0.000000    0.000000
    32        -0.437842071630002    1.770e-09    0.013630    0.000000    0.000000    0.000000
    33        -0.437842071629883    1.416e-09    0.013630    0.000000    0.000000    0.000000
    34        -0.437842071634584    8.014e-10    0.013630    0.000000    0.000000    0.000000
    35        -0.437842071637761    3.574e-10    0.013630    0.000000    0.000000    0.000000
    36        -0.437842071638346    1.378e-10    0.013630    0.000000    0.000000    0.000000

      * MP2 total energy                      = -151.289100401741138
      * CCSD total energy                     = -151.309882223557423
      * CCSD(T) total energy                     = -151.322279117719972
*** Psi4 exiting successfully. Buy a developer a beer!
