                               Psi4 1.3.2 release

  ==> Input File <==

--------------------------------------------------------------------------
memory 4 GB

molecule  {
0 3
O    0.000000000000    0.000000000000   -1.464477094306
H    0.000000000000   -0.732650528968   -0.845583954206
H   -0.000000000000    0.732650528968   -0.845583954206
O    0.000000000000    0.000000000000    1.571036047094
}
set {
basis aug-cc-pvtz
reference uhf
e_convergence 10
scf_type pk
freeze_core true
}

set ccenergy {
e_convergence 10
r_convergence 10
}

e = energy('ccsd(t)')

print_out('Stephenergy {}'.format(e))

--------------------------------------------------------------------------

    Molecular point group: c2v

    Geometry (in Angstrom), charge = 0, multiplicity = 3:

       Center              X                  Y                   Z               Mass
    ------------   -----------------  -----------------  -----------------  -----------------
         O            0.000000000000     0.000000000000    -1.464477094306    15.994914619570
         H            0.000000000000    -0.732650528968    -0.845583954206     1.007825032230
         H           -0.000000000000     0.732650528968    -0.845583954206     1.007825032230
         O            0.000000000000     0.000000000000     1.571036047094    15.994914619570

  Charge       = 0
  Multiplicity = 3
  Basis Set: AUG-CC-PVTZ
    Blend: AUG-CC-PVTZ

    Orbital Energies [Eh]
    ---------------------

    Alpha Occupied:

       1A1   -20.734071     2A1   -20.560688     3A1    -1.444127
       4A1    -1.348269     1B2    -0.735600     1B1    -0.734601
       2B2    -0.699034     5A1    -0.642837     6A1    -0.581635
       2B1    -0.503839

    Alpha Virtual:

       7A1     0.036153     3B2     0.048835     3B1     0.130597
       8A1     0.130623     9A1     0.152856     4B2     0.159149
       4B1     0.185884     5B2     0.186860    10A1     0.192001
      11A1     0.264209     6B2     0.264383     1A2     0.266552
      12A1     0.275979     5B1     0.325718    13A1     0.385594
       7B2     0.387480    14A1     0.457309     8B2     0.475924
       2A2     0.613049    15A1     0.629751     9B2     0.629854
      16A1     0.648757     6B1     0.654068    17A1     0.717724
       3A2     0.733710    10B2     0.751347     7B1     0.764447
      18A1     0.778683     8B1     0.826088    11B2     0.851125
      19A1     0.863974     9B1     0.920854    12B2     0.945391
       4A2     0.951316    20A1     0.962432    21A1     0.998387
      10B1     1.000280    13B2     1.015006    22A1     1.067702
      14B2     1.068324    11B1     1.171384     5A2     1.200748
      23A1     1.206251    24A1     1.224329    15B2     1.267135
      16B2     1.347442    25A1     1.443074     6A2     1.512235
      12B1     1.583136    26A1     1.760169    27A1     1.838299
      17B2     1.869617    18B2     1.960010    13B1     1.975244
      28A1     2.009659    19B2     2.017506     7A2     2.019008
      14B1     2.042447    29A1     2.047219     8A2     2.083530
      30A1     2.102624    20B2     2.120847    15B1     2.160073
      31A1     2.214855    16B1     2.319052    21B2     2.338631
       9A2     2.348034    32A1     2.368215    33A1     2.424803
      34A1     2.499896    22B2     2.536064    17B1     2.570014
      35A1     2.623931    23B2     2.696216    18B1     2.728370
      36A1     2.876081    24B2     2.885368    10A2     2.895219
      25B2     3.692853    37A1     3.728525    19B1     4.054963
      11A2     4.066796    20B1     4.121467    26B2     4.128285
      38A1     4.200428    21B1     4.236662    27B2     4.299647
      39A1     4.301156    12A2     4.391176    22B1     4.428465
      40A1     4.524953    28B2     4.568819    41A1     4.786738
      29B2     4.891867    13A2     5.151054    30B2     5.216572
      31B2     5.243774    42A1     5.385389    23B1     5.553299
      43A1     5.641334    44A1     6.241742    24B1     6.311415
      32B2     6.314633    14A2     6.391597    45A1     6.405341
      25B1     6.427897    33B2     6.494260    46A1     6.521389
      34B2     6.563149    26B1     6.781593    15A2     6.821227
      47A1     6.823880    27B1     6.942618    35B2     6.982315
      48A1     6.986580    49A1     7.046241    28B1     7.145026
      29B1     7.273960    36B2     7.318875    16A2     7.333586
      17A2     7.357423    50A1     7.412940    51A1     7.569840
      52A1     7.869702    37B2     7.981436    38B2     8.858053
      53A1     8.918541    54A1    15.862369

    Beta Occupied:

       1A1   -20.655599     2A1   -20.560765     3A1    -1.348801
       4A1    -1.102089     1B2    -0.699493     5A1    -0.595713
       6A1    -0.539937     1B1    -0.503731

    Beta Virtual:

       2B2     0.032220     7A1     0.037463     2B1     0.046186
       3B2     0.069109     8A1     0.135961     9A1     0.155488
       3B1     0.161158     4B2     0.179398    10A1     0.192539
       4B1     0.225453     5B2     0.227362     6B2     0.266088
       1A2     0.267226    11A1     0.271474    12A1     0.280495
       5B1     0.328077    13A1     0.389416     7B2     0.396713
      14A1     0.459195     8B2     0.476374     9B2     0.631022
       2A2     0.645043    15A1     0.650224    16A1     0.663564
       6B1     0.664198    17A1     0.718700     3A2     0.734847
      10B2     0.766119     7B1     0.769409    18A1     0.793333
      19A1     0.867901     8B1     0.907838    11B2     0.939395
       9B1     0.941254     4A2     0.954037    12B2     0.957144
      20A1     0.964359    21A1     1.003995    13B2     1.037946
      10B1     1.040304    22A1     1.070506    14B2     1.081127
      11B1     1.185369     5A2     1.201894    23A1     1.216575
      24A1     1.261832    15B2     1.267301    16B2     1.365694
      25A1     1.460738     6A2     1.512606    12B1     1.583615
      26A1     1.782246    27A1     1.844207    17B2     1.871110
      18B2     1.973721    13B1     2.012281    28A1     2.038062
      19B2     2.040894    14B1     2.072356     7A2     2.083791
      29A1     2.107658    20B2     2.180841     8A2     2.188248
      30A1     2.192551    15B1     2.213625    31A1     2.257492
      16B1     2.329749     9A2     2.353819    21B2     2.367433
      32A1     2.374806    33A1     2.438015    34A1     2.502103
      22B2     2.544346    17B1     2.574820    35A1     2.629340
      23B2     2.697260    18B1     2.728582    36A1     2.876988
      24B2     2.886554    10A2     2.895309    25B2     3.693847
      37A1     3.729348    11A2     4.066943    19B1     4.114215
      38A1     4.201183    20B1     4.221270    21B1     4.248625
      26B2     4.293076    27B2     4.300209    39A1     4.320983
      12A2     4.391249    22B1     4.429377    40A1     4.551579
      28B2     4.570841    41A1     4.787852    29B2     4.892682
      13A2     5.151113    30B2     5.216632    31B2     5.244001
      42A1     5.385864    23B1     5.553317    43A1     5.641631
      44A1     6.248585    24B1     6.419953    32B2     6.422709
      14A2     6.468010    45A1     6.477557    25B1     6.481727
      33B2     6.503125    46A1     6.566026    34B2     6.611252
      26B1     6.789291    47A1     6.988825    15A2     7.009558
      48A1     7.018239    27B1     7.047657    35B2     7.090810
      49A1     7.120043    28B1     7.146509    29B1     7.274117
      36B2     7.319328    16A2     7.333738    17A2     7.357568
      50A1     7.413889    51A1     7.571442    52A1     7.869928
      37B2     7.981462    38B2     8.857900    53A1     8.998452
      54A1    15.862385

    Final Occupation by Irrep:
             A1    A2    B1    B2
    DOCC [     6,    0,    1,    1 ]
    SOCC [     0,    0,    1,    1 ]

  @UHF Final Energy:  -150.87154589188609

   => Energetics <=

    Nuclear Repulsion Energy =             23.6992836802988549
    One-Electron Energy =                -255.1508290350973311
    Two-Electron Energy =                  80.5799994629123972
    Total Energy =                       -150.8715458918860577

  UHF NO Occupations:
  HONO-2 :    6 A1 1.9970840
  HONO-1 :    2 B1 1.0000000
  HONO-0 :    2 B2 1.0000000
  LUNO+0 :    7 A1 0.0029160
  LUNO+1 :    8 A1 0.0016082
  LUNO+2 :    9 A1 0.0000024
  LUNO+3 :   10 A1 0.0000020

Computation Completed

Properties will be evaluated at   0.000000,   0.000000,   0.000000 [a0]

Properties computed using the SCF density matrix

  Nuclear Dipole Moment: [e a0]
     X:     0.0000      Y:     0.0000      Z:    -1.5849

  Electronic Dipole Moment: [e a0]
     X:     0.0000      Y:     0.0000      Z:     2.4632

  Dipole Moment: [e a0]
     X:     0.0000      Y:     0.0000      Z:     0.8783     Total:     0.8783

  Dipole Moment: [D]
     X:     0.0000      Y:     0.0000      Z:     2.2323     Total:     2.2323

*** tstop() called on c5-7.compute.lan at Wed Mar 10 09:29:37 2021
Module time:
	user time   =      42.81 seconds =       0.71 minutes
	system time =       0.69 seconds =       0.01 minutes
	total time  =          5 seconds =       0.08 minutes
Total time:
	user time   =      42.81 seconds =       0.71 minutes
	system time =       0.69 seconds =       0.01 minutes
	total time  =          5 seconds =       0.08 minutes
 MINTS: Wrapper to libmints.
   by Justin Turney

   Calculation information:
      Number of threads:                12
      Number of atoms:                   4
      Number of AO shells:              46
      Number of SO shells:              37
      Number of primitives:             82
      Number of atomic orbitals:       160
      Number of basis functions:       138

      Number of irreps:                  4
      Integral cutoff                 0.00e+00
      Number of functions per irrep: [  54   17   29   38 ]

 OEINTS: Overlap, kinetic, potential, dipole, and quadrupole integrals
         stored in file 35.

      Computing two-electron integrals...done
      Computed 11518942 non-zero two-electron integrals.
        Stored in file 33.

*** tstart() called on c5-7.compute.lan
*** at Wed Mar 10 09:29:39 2021

	Wfn Parameters:
	--------------------
	Wavefunction         = CCSD_T
	Number of irreps     = 4
	Number of MOs        = 138
	Number of active MOs = 136
	AO-Basis             = NONE
	Semicanonical        = false
	Reference            = UHF
	Print Level          = 1

	IRREP	# MOs	# FZDC	# DOCC	# SOCC	# VIRT	# FZVR
	-----	-----	------	------	------	------	------
	 A1	   54	    2	    4	    0	    48	    0
	 A2	   17	    0	    0	    0	    17	    0
	 B1	   29	    0	    1	    1	    27	    0
	 B2	   38	    0	    1	    1	    36	    0
	Transforming integrals...
	IWL integrals will be deleted.
	(OO|OO)...
	Presorting SO-basis two-electron integrals.
	Sorting File: SO Ints (nn|nn) nbuckets = 1
	Transforming the one-electron integrals and constructing Fock matrices
	Starting AA/AB first half-transformation.
	Sorting AA/AB half-transformed integrals.
	Starting BB first half-transformation.
	Sorting BB half-transformed integrals.
	First half integral transformation complete.
	Starting AA second half-transformation.
	Starting AB second half-transformation.
	Starting BB second half-transformation.
	Two-electron integral transformation complete.
	(OO|OV)...
	Starting AA second half-transformation.
	Starting AB second half-transformation.
	Starting BB second half-transformation.
	Two-electron integral transformation complete.
	(OO|VV)...
	Starting AA second half-transformation.
	Starting AB second half-transformation.
	Starting BB second half-transformation.
	Two-electron integral transformation complete.
	(OV|OO)...
	Starting AA/AB first half-transformation.
	Sorting AA/AB half-transformed integrals.
	Starting BB first half-transformation.
	Sorting BB half-transformed integrals.
	First half integral transformation complete.
	Starting AA second half-transformation.
	Starting AB second half-transformation.
	Starting BB second half-transformation.
	Two-electron integral transformation complete.
	(OV|OV)...
	Starting AA second half-transformation.
	Starting AB second half-transformation.
	Starting BB second half-transformation.
	Two-electron integral transformation complete.
	(OV|VV)...
	Starting AA second half-transformation.
	Starting AB second half-transformation.
	Starting BB second half-transformation.
	Two-electron integral transformation complete.
	(VV|OO)...
	Starting AA/AB first half-transformation.
	Sorting AA/AB half-transformed integrals.
	Starting BB first half-transformation.
	Sorting BB half-transformed integrals.
	First half integral transformation complete.
	Starting AA second half-transformation.
	Starting AB second half-transformation.
	Starting BB second half-transformation.
	Two-electron integral transformation complete.
	(VV|OV)...
	Starting AA second half-transformation.
	Starting AB second half-transformation.
	Starting BB second half-transformation.
	Two-electron integral transformation complete.
	(VV|VV)...
	Starting AA second half-transformation.
	Starting AB second half-transformation.
	Starting BB second half-transformation.
	Two-electron integral transformation complete.
	Frozen core energy     =   -126.13752499252980

	Size of irrep 0 of <AB|CD> integrals:      5.040 (MW) /     40.320 (MB)
	Size of irrep 1 of <AB|CD> integrals:      3.197 (MW) /     25.576 (MB)
	Size of irrep 2 of <AB|CD> integrals:      3.640 (MW) /     29.124 (MB)
	Size of irrep 3 of <AB|CD> integrals:      4.783 (MW) /     38.264 (MB)
	Total:                                    16.660 (MW) /    133.283 (MB)

	Size of irrep 0 of <ab|cd> integrals:      5.327 (MW) /     42.615 (MB)
	Size of irrep 1 of <ab|cd> integrals:      3.430 (MW) /     27.439 (MB)
	Size of irrep 2 of <ab|cd> integrals:      3.893 (MW) /     31.142 (MB)
	Size of irrep 3 of <ab|cd> integrals:      5.072 (MW) /     40.572 (MB)
	Total:                                    17.721 (MW) /    141.768 (MB)

	Size of irrep 0 of <Ab|Cd> integrals:     21.912 (MW) /    175.294 (MB)
	Size of irrep 1 of <Ab|Cd> integrals:     13.242 (MW) /    105.939 (MB)
	Size of irrep 2 of <Ab|Cd> integrals:     15.062 (MW) /    120.497 (MB)
	Size of irrep 3 of <Ab|Cd> integrals:     19.705 (MW) /    157.638 (MB)
	Total:                                    69.921 (MW) /    559.368 (MB)

	Size of irrep 0 of <IA|BC> integrals:      1.469 (MW) /     11.748 (MB)
	Size of irrep 1 of <IA|BC> integrals:      0.694 (MW) /      5.550 (MB)
	Size of irrep 2 of <IA|BC> integrals:      0.908 (MW) /      7.266 (MB)
	Size of irrep 3 of <IA|BC> integrals:      1.198 (MW) /      9.588 (MB)
	Total:                                     4.269 (MW) /     34.152 (MB)

	Size of irrep 0 of <ia|bc> integrals:      1.220 (MW) /      9.758 (MB)
	Size of irrep 1 of <ia|bc> integrals:      0.493 (MW) /      3.941 (MB)
	Size of irrep 2 of <ia|bc> integrals:      0.698 (MW) /      5.588 (MB)
	Size of irrep 3 of <ia|bc> integrals:      0.959 (MW) /      7.675 (MB)
	Total:                                     3.370 (MW) /     26.961 (MB)

	Size of irrep 0 of <Ia|Bc> integrals:      1.507 (MW) /     12.058 (MB)
	Size of irrep 1 of <Ia|Bc> integrals:      0.721 (MW) /      5.764 (MB)
	Size of irrep 2 of <Ia|Bc> integrals:      0.939 (MW) /      7.514 (MB)
	Size of irrep 3 of <Ia|Bc> integrals:      1.234 (MW) /      9.872 (MB)
	Total:                                     4.401 (MW) /     35.208 (MB)

	Size of irrep 0 of <iA|bC> integrals:      1.194 (MW) /      9.549 (MB)
	Size of irrep 1 of <iA|bC> integrals:      0.477 (MW) /      3.814 (MB)
	Size of irrep 2 of <iA|bC> integrals:      0.671 (MW) /      5.371 (MB)
	Size of irrep 3 of <iA|bC> integrals:      0.928 (MW) /      7.422 (MB)
	Total:                                     3.270 (MW) /     26.156 (MB)

	Size of irrep 0 of tIjAb amplitudes:       0.094 (MW) /      0.749 (MB)
	Size of irrep 1 of tIjAb amplitudes:       0.015 (MW) /      0.116 (MB)
	Size of irrep 2 of tIjAb amplitudes:       0.047 (MW) /      0.373 (MB)
	Size of irrep 3 of tIjAb amplitudes:       0.053 (MW) /      0.426 (MB)
	Total:                                     0.208 (MW) /      1.664 (MB)

	Nuclear Rep. energy          =     23.69928368029885
	SCF energy                   =   -150.87154589188609
	One-electron energy          =    -85.38690408989274
	Two-electron (AA) energy     =     10.28961272255819
	Two-electron (BB) energy     =      5.47333236095369
	Two-electron (AB) energy     =     21.19065442672283
	Two-electron energy          =     36.95359951023471
	Reference energy             =   -150.87154589188899

*** tstop() called on c5-7.compute.lan at Wed Mar 10 09:29:59 2021
Module time:
	user time   =      61.41 seconds =       1.02 minutes
	system time =       9.48 seconds =       0.16 minutes
	total time  =         20 seconds =       0.33 minutes
Total time:
	user time   =     110.04 seconds =       1.83 minutes
	system time =      10.51 seconds =       0.18 minutes
	total time  =         27 seconds =       0.45 minutes
            **************************
            *                        *
            *        CCENERGY        *
            *                        *
            **************************

    Nuclear Rep. energy (wfn)     =   23.699283680298855
    SCF energy          (wfn)     = -150.871545891886086
    Reference energy    (file100) = -150.871545891888985

    Input parameters:
    -----------------
    Wave function   =     CCSD_T
    Reference wfn   =     UHF
    Brueckner       =     No
    Memory (Mbytes) =     4000.0
    Maxiter         =     50
    R_Convergence   =     1.0e-10
    E_Convergence   =     1.0e-10
    Restart         =     Yes
    DIIS            =     Yes
    AO Basis        =     NONE
    ABCD            =     NEW
    Cache Level     =     2
    Cache Type      =     LRU
    Print Level     =     1
    Num. of threads =     12
    # Amps to Print =     10
    Print MP2 Amps? =     No
    Analyze T2 Amps =     No
    Print Pair Ener =     No
    Local CC        =     No
    SCS-MP2         =     False
    SCSN-MP2        =     False
    SCS-CCSD        =     False

MP2 correlation energy -0.4165399116189566
                Solving CC Amplitude Equations
                ------------------------------
  Iter             Energy              RMS        T1Diag      D1Diag    New D1Diag    D2Diag
  ----     ---------------------    ---------   ----------  ----------  ----------   --------
     0        -0.416539911618957    0.000e+00    0.000000    0.000000    0.000000    0.000000
     1        -0.427390066001874    5.657e-02    0.010462    0.000000    0.000000    0.000000
     2        -0.435516924237508    1.679e-02    0.011014    0.000000    0.000000    0.000000
     3        -0.437597140915303    8.567e-03    0.012890    0.000000    0.000000    0.000000
     4        -0.437473589314483    2.530e-03    0.013271    0.000000    0.000000    0.000000
     5        -0.437455245063678    1.391e-03    0.013443    0.000000    0.000000    0.000000
     6        -0.437483784609272    5.396e-04    0.013480    0.000000    0.000000    0.000000
     7        -0.437488847342552    3.027e-04    0.013482    0.000000    0.000000    0.000000
     8        -0.437489265780090    1.018e-04    0.013480    0.000000    0.000000    0.000000
     9        -0.437490665603807    5.624e-05    0.013483    0.000000    0.000000    0.000000
    10        -0.437488815387024    2.814e-05    0.013485    0.000000    0.000000    0.000000
    11        -0.437489033714768    1.467e-05    0.013486    0.000000    0.000000    0.000000
    12        -0.437488986591403    5.815e-06    0.013487    0.000000    0.000000    0.000000
    13        -0.437489039222828    2.018e-06    0.013487    0.000000    0.000000    0.000000
    14        -0.437489114633365    8.202e-07    0.013487    0.000000    0.000000    0.000000
    15        -0.437489121195291    2.363e-07    0.013487    0.000000    0.000000    0.000000
    16        -0.437489122286277    1.241e-07    0.013487    0.000000    0.000000    0.000000
    17        -0.437489123575124    4.187e-08    0.013487    0.000000    0.000000    0.000000
    18        -0.437489122807265    2.002e-08    0.013487    0.000000    0.000000    0.000000

      * MP2 total energy                      = -151.288085803507954
      * CCSD total energy                     = -151.309035014554723
      * CCSD(T) total energy                     = -151.321369159570963
*** Psi4 exiting successfully. Buy a developer a beer!
