                               Psi4 1.3.2 release

  ==> Input File <==

--------------------------------------------------------------------------
memory 4 GB

molecule  {
0 3
O   -1.504765099520   -0.002008033377    0.000000000000
H   -0.554028862420    0.152263197223    0.000000000000
H   -1.888911518439    0.877289621412    0.000000000000
O    1.658692552503   -0.062863153954    0.000000000000
}
set {
basis aug-cc-pvtz
reference uhf
e_convergence 10
scf_type pk
freeze_core true
}

set ccenergy {
e_convergence 10
r_convergence 10
}

e = energy('ccsd(t)')

print_out('Stephenergy {}'.format(e))

--------------------------------------------------------------------------

    Molecular point group: cs

    Geometry (in Angstrom), charge = 0, multiplicity = 3:

       Center              X                  Y                   Z               Mass
    ------------   -----------------  -----------------  -----------------  -----------------
         O           -1.504765099520    -0.002008033377     0.000000000000    15.994914619570
         H           -0.554028862420     0.152263197223     0.000000000000     1.007825032230
         H           -1.888911518439     0.877289621412     0.000000000000     1.007825032230
         O            1.658692552503    -0.062863153954     0.000000000000    15.994914619570

  Charge       = 0
  Multiplicity = 3
  Basis Set: AUG-CC-PVTZ
    Blend: AUG-CC-PVTZ

    Orbital Energies [Eh]
    ---------------------

    Alpha Occupied:

       1Ap   -20.733148     2Ap   -20.558654     3Ap    -1.442480
       4Ap    -1.343387     5Ap    -0.733248     1App   -0.732873
       6Ap    -0.710376     7Ap    -0.634583     8Ap    -0.575298
       2App   -0.501977

    Alpha Virtual:

       9Ap     0.034232    10Ap     0.053482    11Ap     0.128126
       3App    0.132877    12Ap     0.148135    13Ap     0.160822
      14Ap     0.183958     4App    0.186793    15Ap     0.214131
      16Ap     0.241962    17Ap     0.264656     5App    0.286391
      18Ap     0.303593     6App    0.320668    19Ap     0.364600
      20Ap     0.406052    21Ap     0.460827    22Ap     0.568340
       7App    0.602537    23Ap     0.608692    24Ap     0.627604
      25Ap     0.681617     8App    0.709781    26Ap     0.714578
       9App    0.736546    10App    0.748808    27Ap     0.751784
      28Ap     0.811777    11App    0.825961    29Ap     0.837243
      12App    0.890729    30Ap     0.891222    31Ap     0.922908
      32Ap     0.945335    13App    0.947192    33Ap     0.951545
      14App    0.972467    34Ap     0.978672    35Ap     1.043975
      36Ap     1.135281    15App    1.154753    37Ap     1.170069
      38Ap     1.185468    39Ap     1.261941    16App    1.294110
      40Ap     1.316724    17App    1.527791    41Ap     1.585383
      18App    1.598184    42Ap     1.715067    43Ap     1.810317
      44Ap     1.842782    45Ap     1.977567    19App    1.977646
      46Ap     1.979888    20App    2.013168    47Ap     2.018045
      21App    2.048677    48Ap     2.061463    22App    2.122764
      49Ap     2.153976    50Ap     2.176263    23App    2.212623
      24App    2.303050    51Ap     2.310933    52Ap     2.338412
      53Ap     2.414879    25App    2.442410    54Ap     2.460315
      55Ap     2.491978    26App    2.526477    56Ap     2.629322
      57Ap     2.709518    27App    2.727240    58Ap     2.735881
      59Ap     2.860652    60Ap     2.932140    28App    2.944209
      61Ap     3.698547    62Ap     3.891619    29App    4.037167
      30App    4.063047    63Ap     4.074057    31App    4.178310
      64Ap     4.208142    65Ap     4.267305    32App    4.301119
      33App    4.391544    66Ap     4.406112    34App    4.430994
      67Ap     4.444929    68Ap     4.602602    69Ap     4.781491
      70Ap     4.961581    35App    5.157246    71Ap     5.174852
      72Ap     5.298831    73Ap     5.392537    36App    5.528457
      74Ap     5.690690    75Ap     6.191282    37App    6.312281
      76Ap     6.312312    38App    6.375480    77Ap     6.378142
      39App    6.518451    78Ap     6.519651    79Ap     6.559227
      80Ap     6.637216    40App    6.735635    81Ap     6.814436
      41App    6.819989    82Ap     6.923872    42App    6.936767
      83Ap     6.962266    84Ap     7.051051    43App    7.148924
      44App    7.273194    85Ap     7.326154    45App    7.327890
      86Ap     7.364222    46App    7.435444    87Ap     7.648840
      88Ap     7.944729    89Ap     7.965186    90Ap     8.815214
      91Ap     9.514619    92Ap    16.331308

    Beta Occupied:

       1Ap   -20.654362     2Ap   -20.558784     3Ap    -1.343962
       4Ap    -1.100014     5Ap    -0.709582     6Ap    -0.580341
       7Ap    -0.541278     1App   -0.502021

    Beta Virtual:

       8Ap     0.034377     2App    0.049295     9Ap     0.049518
      10Ap     0.055217    11Ap     0.143856    12Ap     0.152907
       3App    0.161198    13Ap     0.178206    14Ap     0.207844
      15Ap     0.225297     4App    0.227140    16Ap     0.250744
      17Ap     0.265930     5App    0.286600    18Ap     0.305727
       6App    0.324415    19Ap     0.368496    20Ap     0.417010
      21Ap     0.462051    22Ap     0.571915    23Ap     0.628323
       7App    0.634932    24Ap     0.640487    25Ap     0.686367
      26Ap     0.715221     8App    0.721878     9App    0.739665
      10App    0.750470    27Ap     0.768552    28Ap     0.818134
      29Ap     0.867467    11App    0.869085    30Ap     0.920011
      12App    0.941891    31Ap     0.942047    13App    0.949430
      32Ap     0.952893    33Ap     0.969849    34Ap     1.017744
      14App    1.020438    35Ap     1.046239    15App    1.157944
      36Ap     1.163063    37Ap     1.173569    38Ap     1.216313
      39Ap     1.264974    16App    1.304701    40Ap     1.325541
      17App    1.528527    41Ap     1.587698    18App    1.599613
      42Ap     1.741427    43Ap     1.815960    44Ap     1.853183
      45Ap     1.988050    46Ap     2.015612    19App    2.015622
      20App    2.053939    47Ap     2.066077    21App    2.170922
      48Ap     2.176453    22App    2.179652    49Ap     2.194785
      50Ap     2.244933    23App    2.249921    24App    2.306364
      51Ap     2.316368    52Ap     2.360890    53Ap     2.419435
      25App    2.445080    54Ap     2.461085    55Ap     2.498309
      26App    2.534961    56Ap     2.636504    57Ap     2.725716
      27App    2.728559    58Ap     2.740188    59Ap     2.862460
      60Ap     2.936548    28App    2.944839    61Ap     3.699227
      62Ap     3.894011    29App    4.040159    30App    4.147135
      63Ap     4.192473    64Ap     4.244037    31App    4.262510
      65Ap     4.278594    32App    4.301178    33App    4.391615
      66Ap     4.409989    34App    4.431678    67Ap     4.489203
      68Ap     4.605009    69Ap     4.783147    70Ap     4.963554
      35App    5.157234    71Ap     5.175155    72Ap     5.299080
      73Ap     5.393740    36App    5.528517    74Ap     5.691045
      75Ap     6.192509    76Ap     6.421135    37App    6.421139
      38App    6.450682    77Ap     6.453341    78Ap     6.534039
      39App    6.572366    79Ap     6.600765    80Ap     6.682186
      40App    6.741516    81Ap     6.926307    41App    7.005102
      82Ap     7.006782    42App    7.045932    83Ap     7.068569
      84Ap     7.130770    43App    7.151476    44App    7.273481
      85Ap     7.326479    45App    7.328567    86Ap     7.364975
      46App    7.435855    87Ap     7.649681    88Ap     7.945660
      89Ap     7.965609    90Ap     8.816826    91Ap     9.589573
      92Ap    16.331584

    Final Occupation by Irrep:
             Ap   App
    DOCC [     7,    1 ]
    SOCC [     1,    1 ]

  @UHF Final Energy:  -150.87451257077564

   => Energetics <=

    Nuclear Repulsion Energy =             22.9170894854853131
    One-Electron Energy =                -253.6268358435828816
    Two-Electron Energy =                  79.8352337873219255
    Total Energy =                       -150.8745125707756358

  UHF NO Occupations:
  HONO-2 :    7 Ap 1.9970281
  HONO-1 :    2App 1.0000000
  HONO-0 :    8 Ap 1.0000000
  LUNO+0 :    9 Ap 0.0029719
  LUNO+1 :   10 Ap 0.0017159
  LUNO+2 :   11 Ap 0.0000024
  LUNO+3 :   12 Ap 0.0000018

Computation Completed

Properties will be evaluated at   0.000000,   0.000000,   0.000000 [a0]

Properties computed using the SCF density matrix

  Nuclear Dipole Moment: [e a0]
     X:    -2.2894      Y:     0.9649      Z:     0.0000

  Electronic Dipole Moment: [e a0]
     X:     2.7566      Y:    -0.2913      Z:     0.0000

  Dipole Moment: [e a0]
     X:     0.4671      Y:     0.6736      Z:     0.0000     Total:     0.8197

  Dipole Moment: [D]
     X:     1.1873      Y:     1.7121      Z:     0.0000     Total:     2.0835

*** tstop() called on d3-17.compute.lan at Tue Mar  9 15:30:08 2021
Module time:
	user time   =      55.71 seconds =       0.93 minutes
	system time =       2.43 seconds =       0.04 minutes
	total time  =          6 seconds =       0.10 minutes
Total time:
	user time   =      55.71 seconds =       0.93 minutes
	system time =       2.43 seconds =       0.04 minutes
	total time  =          6 seconds =       0.10 minutes
 MINTS: Wrapper to libmints.
   by Justin Turney

   Calculation information:
      Number of threads:                12
      Number of atoms:                   4
      Number of AO shells:              46
      Number of SO shells:              46
      Number of primitives:             82
      Number of atomic orbitals:       160
      Number of basis functions:       138

      Number of irreps:                  2
      Integral cutoff                 0.00e+00
      Number of functions per irrep: [  92   46 ]

 OEINTS: Overlap, kinetic, potential, dipole, and quadrupole integrals
         stored in file 35.

      Computing two-electron integrals...done
      Computed 22936480 non-zero two-electron integrals.
        Stored in file 33.

*** tstart() called on d3-17.compute.lan
*** at Tue Mar  9 15:30:12 2021

	Wfn Parameters:
	--------------------
	Wavefunction         = CCSD_T
	Number of irreps     = 2
	Number of MOs        = 138
	Number of active MOs = 136
	AO-Basis             = NONE
	Semicanonical        = false
	Reference            = UHF
	Print Level          = 1

	IRREP	# MOs	# FZDC	# DOCC	# SOCC	# VIRT	# FZVR
	-----	-----	------	------	------	------	------
	 Ap	   92	    2	    5	    1	    84	    0
	 App	   46	    0	    1	    1	    44	    0
	Transforming integrals...
	IWL integrals will be deleted.
	(OO|OO)...
	Presorting SO-basis two-electron integrals.
	Sorting File: SO Ints (nn|nn) nbuckets = 1
	Transforming the one-electron integrals and constructing Fock matrices
	Starting AA/AB first half-transformation.
	Sorting AA/AB half-transformed integrals.
	Starting BB first half-transformation.
	Sorting BB half-transformed integrals.
	First half integral transformation complete.
	Starting AA second half-transformation.
	Starting AB second half-transformation.
	Starting BB second half-transformation.
	Two-electron integral transformation complete.
	(OO|OV)...
	Starting AA second half-transformation.
	Starting AB second half-transformation.
	Starting BB second half-transformation.
	Two-electron integral transformation complete.
	(OO|VV)...
	Starting AA second half-transformation.
	Starting AB second half-transformation.
	Starting BB second half-transformation.
	Two-electron integral transformation complete.
	(OV|OO)...
	Starting AA/AB first half-transformation.
	Sorting AA/AB half-transformed integrals.
	Starting BB first half-transformation.
	Sorting BB half-transformed integrals.
	First half integral transformation complete.
	Starting AA second half-transformation.
	Starting AB second half-transformation.
	Starting BB second half-transformation.
	Two-electron integral transformation complete.
	(OV|OV)...
	Starting AA second half-transformation.
	Starting AB second half-transformation.
	Starting BB second half-transformation.
	Two-electron integral transformation complete.
	(OV|VV)...
	Starting AA second half-transformation.
	Starting AB second half-transformation.
	Starting BB second half-transformation.
	Two-electron integral transformation complete.
	(VV|OO)...
	Starting AA/AB first half-transformation.
	Sorting AA/AB half-transformed integrals.
	Starting BB first half-transformation.
	Sorting BB half-transformed integrals.
	First half integral transformation complete.
	Starting AA second half-transformation.
	Starting AB second half-transformation.
	Starting BB second half-transformation.
	Two-electron integral transformation complete.
	(VV|OV)...
	Starting AA second half-transformation.
	Starting AB second half-transformation.
	Starting BB second half-transformation.
	Two-electron integral transformation complete.
	(VV|VV)...
	Starting AA second half-transformation.
	Starting AB second half-transformation.
	Starting BB second half-transformation.
	Two-electron integral transformation complete.
	Frozen core energy     =   -125.86010460844169

	Size of irrep 0 of <AB|CD> integrals:     19.643 (MW) /    157.141 (MB)
	Size of irrep 1 of <AB|CD> integrals:     13.660 (MW) /    109.283 (MB)
	Total:                                    33.303 (MW) /    266.424 (MB)

	Size of irrep 0 of <ab|cd> integrals:     20.794 (MW) /    166.349 (MB)
	Size of irrep 1 of <ab|cd> integrals:     14.631 (MW) /    117.045 (MB)
	Total:                                    35.424 (MW) /    283.394 (MB)

	Size of irrep 0 of <Ab|Cd> integrals:     83.174 (MW) /    665.395 (MB)
	Size of irrep 1 of <Ab|Cd> integrals:     56.550 (MW) /    452.403 (MB)
	Total:                                   139.725 (MW) /   1117.798 (MB)

	Size of irrep 0 of <IA|BC> integrals:      5.323 (MW) /     42.586 (MB)
	Size of irrep 1 of <IA|BC> integrals:      3.193 (MW) /     25.547 (MB)
	Total:                                     8.517 (MW) /     68.133 (MB)

	Size of irrep 0 of <ia|bc> integrals:      4.348 (MW) /     34.780 (MB)
	Size of irrep 1 of <ia|bc> integrals:      2.372 (MW) /     18.972 (MB)
	Total:                                     6.719 (MW) /     53.752 (MB)

	Size of irrep 0 of <Ia|Bc> integrals:      5.472 (MW) /     43.776 (MB)
	Size of irrep 1 of <Ia|Bc> integrals:      3.309 (MW) /     26.470 (MB)
	Total:                                     8.781 (MW) /     70.246 (MB)

	Size of irrep 0 of <iA|bC> integrals:      4.232 (MW) /     33.853 (MB)
	Size of irrep 1 of <iA|bC> integrals:      2.286 (MW) /     18.289 (MB)
	Total:                                     6.518 (MW) /     52.142 (MB)

	Size of irrep 0 of tIjAb amplitudes:       0.292 (MW) /      2.335 (MB)
	Size of irrep 1 of tIjAb amplitudes:       0.120 (MW) /      0.963 (MB)
	Total:                                     0.412 (MW) /      3.297 (MB)

	Nuclear Rep. energy          =     22.91708948548531
	SCF energy                   =   -150.87451257077564
	One-electron energy          =    -84.41157453475034
	Two-electron (AA) energy     =     10.13737097987907
	Two-electron (BB) energy     =      5.39304217037305
	Two-electron (AB) energy     =     20.94966393667814
	Two-electron energy          =     36.48007708693025
	Reference energy             =   -150.87451257077646

*** tstop() called on d3-17.compute.lan at Tue Mar  9 15:30:58 2021
Module time:
	user time   =     260.09 seconds =       4.33 minutes
	system time =      19.88 seconds =       0.33 minutes
	total time  =         46 seconds =       0.77 minutes
Total time:
	user time   =     323.12 seconds =       5.39 minutes
	system time =      23.19 seconds =       0.39 minutes
	total time  =         56 seconds =       0.93 minutes
            **************************
            *                        *
            *        CCENERGY        *
            *                        *
            **************************

    Nuclear Rep. energy (wfn)     =   22.917089485485313
    SCF energy          (wfn)     = -150.874512570775636
    Reference energy    (file100) = -150.874512570776460

    Input parameters:
    -----------------
    Wave function   =     CCSD_T
    Reference wfn   =     UHF
    Brueckner       =     No
    Memory (Mbytes) =     4000.0
    Maxiter         =     50
    R_Convergence   =     1.0e-10
    E_Convergence   =     1.0e-10
    Restart         =     Yes
    DIIS            =     Yes
    AO Basis        =     NONE
    ABCD            =     NEW
    Cache Level     =     2
    Cache Type      =     LRU
    Print Level     =     1
    Num. of threads =     12
    # Amps to Print =     10
    Print MP2 Amps? =     No
    Analyze T2 Amps =     No
    Print Pair Ener =     No
    Local CC        =     No
    SCS-MP2         =     False
    SCSN-MP2        =     False
    SCS-CCSD        =     False

MP2 correlation energy -0.4165713660592733
                Solving CC Amplitude Equations
                ------------------------------
  Iter             Energy              RMS        T1Diag      D1Diag    New D1Diag    D2Diag
  ----     ---------------------    ---------   ----------  ----------  ----------   --------
     0        -0.416571366059273    0.000e+00    0.000000    0.000000    0.000000    0.000000
     1        -0.427302970099115    5.685e-02    0.010546    0.000000    0.000000    0.000000
     2        -0.435386134659085    1.688e-02    0.011026    0.000000    0.000000    0.000000
     3        -0.437505135043301    8.567e-03    0.012896    0.000000    0.000000    0.000000
     4        -0.437379297774248    2.534e-03    0.013263    0.000000    0.000000    0.000000
     5        -0.437364847483701    1.320e-03    0.013419    0.000000    0.000000    0.000000
     6        -0.437392088461859    5.146e-04    0.013441    0.000000    0.000000    0.000000
     7        -0.437396723608304    2.645e-04    0.013435    0.000000    0.000000    0.000000
     8        -0.437397320987554    9.926e-05    0.013431    0.000000    0.000000    0.000000
     9        -0.437398690942047    7.391e-05    0.013432    0.000000    0.000000    0.000000
    10        -0.437397134415202    6.374e-05    0.013433    0.000000    0.000000    0.000000
    11        -0.437397280861426    6.088e-05    0.013434    0.000000    0.000000    0.000000
    12        -0.437396996232211    5.919e-05    0.013436    0.000000    0.000000    0.000000
    13        -0.437396989615874    5.806e-05    0.013440    0.000000    0.000000    0.000000
    14        -0.437398150718636    5.622e-05    0.013457    0.000000    0.000000    0.000000
    15        -0.437398525957663    4.980e-05    0.013528    0.000000    0.000000    0.000000
    16        -0.437398301872002    3.339e-05    0.013666    0.000000    0.000000    0.000000
    17        -0.437397956797055    1.615e-05    0.013735    0.000000    0.000000    0.000000
    18        -0.437397826749493    7.575e-06    0.013752    0.000000    0.000000    0.000000
    19        -0.437398085220735    3.350e-06    0.013757    0.000000    0.000000    0.000000
    20        -0.437398197000455    1.501e-06    0.013758    0.000000    0.000000    0.000000
    21        -0.437398204997235    5.918e-07    0.013758    0.000000    0.000000    0.000000
    22        -0.437398206267808    2.811e-07    0.013758    0.000000    0.000000    0.000000
    23        -0.437398205160354    1.460e-07    0.013758    0.000000    0.000000    0.000000
    24        -0.437398204473849    6.049e-08    0.013758    0.000000    0.000000    0.000000
    25        -0.437398205433917    3.299e-08    0.013758    0.000000    0.000000    0.000000
    26        -0.437398205894235    2.556e-08    0.013758    0.000000    0.000000    0.000000
    27        -0.437398206052959    2.393e-08    0.013758    0.000000    0.000000    0.000000
    28        -0.437398206001092    2.319e-08    0.013758    0.000000    0.000000    0.000000
    29        -0.437398205838981    2.253e-08    0.013758    0.000000    0.000000    0.000000
    30        -0.437398205572123    2.146e-08    0.013758    0.000000    0.000000    0.000000
    31        -0.437398205762238    1.823e-08    0.013758    0.000000    0.000000    0.000000
    32        -0.437398206107760    9.628e-09    0.013758    0.000000    0.000000    0.000000
    33        -0.437398206210894    4.220e-09    0.013758    0.000000    0.000000    0.000000
    34        -0.437398206263624    1.721e-09    0.013758    0.000000    0.000000    0.000000
    35        -0.437398206270400    6.755e-10    0.013758    0.000000    0.000000    0.000000
    36        -0.437398206270174    2.894e-10    0.013758    0.000000    0.000000    0.000000

      * MP2 total energy                      = -151.291083936835747
      * CCSD total energy                     = -151.311910777045938
      * CCSD(T) total energy                     = -151.324260351355235
*** Psi4 exiting successfully. Buy a developer a beer!
