                               Psi4 1.4a2.dev191

  ==> Input File <==

--------------------------------------------------------------------------
memory 10 GB

molecule {
0 3
O
H 1 R1
O 1 R2 2 A1
H 3 R1 1 A1 2 D1
R1 = 0.9747006646
R2 = 100.0
A1 = 90.0
D1 = 180.0
}

set {
basis aug-cc-pvdz
e_convergence 10
reference uhf
scf_type pk
mp2_type conv
}

energy("mp2")

--------------------------------------------------------------------------

    Molecular point group: c2h

    Geometry (in Angstrom), charge = 0, multiplicity = 3:

       Center              X                  Y                   Z               Mass
    ------------   -----------------  -----------------  -----------------  -----------------
         O           50.000000000000     0.000000000000     0.000000000000    15.994914619570
         H           50.000000000000    -0.974700664600     0.000000000000     1.007825032230
         O          -50.000000000000     0.000000000000     0.000000000000    15.994914619570
         H          -50.000000000000     0.974700664600     0.000000000000     1.007825032230

  Charge       = 0
  Multiplicity = 3
  Basis Set: AUG-CC-PVDZ
    Blend: AUG-CC-PVDZ

    Orbital Energies [Eh]
    ---------------------

    Alpha Occupied:

       1Ag   -20.651774     1Bu   -20.651774     2Ag    -1.391640
       2Bu    -1.391640     3Ag    -0.682879     3Bu    -0.682879
       1Au    -0.656937     1Bg    -0.656937     4Ag    -0.561399
       4Bu    -0.561399

    Alpha Virtual:

       5Ag     0.035636     5Bu     0.035636     6Ag     0.178328
       6Bu     0.178328     2Au     0.185249     2Bg     0.185249
       7Ag     0.198166     7Bu     0.198166     8Ag     0.225292
       8Bu     0.225292     9Ag     0.315801     9Bu     0.315801
       3Au     0.385889     3Bg     0.385889    10Ag     0.396189
      10Bu     0.396189    11Ag     0.624915    11Bu     0.624915
      12Ag     0.839411    12Bu     0.839411     4Au     0.956603
       4Bg     0.956603    13Ag     0.958313    13Bu     0.958313
       5Au     1.086621     5Bg     1.086621    14Ag     1.117030
      14Bu     1.117030    15Ag     1.316479    15Bu     1.316479
       6Au     1.327625     6Bg     1.327625    16Ag     1.386498
      16Bu     1.386498    17Ag     1.660371    17Bu     1.660371
       7Au     2.010461     7Bg     2.010461    18Ag     2.028157
      18Bu     2.028157    19Ag     2.484235    19Bu     2.484235
      20Ag     2.759554    20Bu     2.759554    21Ag     3.484212
      21Bu     3.484212     8Au     3.484333     8Bg     3.484333
       9Au     3.591402     9Bg     3.591402    22Ag     3.651664
      22Bu     3.651664    23Ag     4.089432    23Bu     4.089432

    Beta Occupied:

       1Ag   -20.610853     1Bu   -20.610853     2Ag    -1.233490
       2Bu    -1.233490     3Ag    -0.638620     3Bu    -0.638620
       4Ag    -0.511702     4Bu    -0.511702

    Beta Virtual:

       5Ag     0.037111     5Bu     0.037111     1Au     0.064603
       1Bg     0.064603     6Ag     0.181784     6Bu     0.181784
       7Ag     0.201627     7Bu     0.201627     8Ag     0.232135
       8Bu     0.232135     2Au     0.258003     2Bg     0.258003
       9Ag     0.320933     9Bu     0.320933    10Ag     0.395726
      10Bu     0.395726     3Au     0.408898     3Bg     0.408898
      11Ag     0.639739    11Bu     0.639739    12Ag     0.849477
      12Bu     0.849477     4Au     0.995287     4Bg     0.995287
      13Ag     0.996364    13Bu     0.996364    14Ag     1.119282
      14Bu     1.119282     5Au     1.132162     5Bg     1.132162
      15Ag     1.331570    15Bu     1.331570    16Ag     1.409741
      16Bu     1.409741     6Au     1.498256     6Bg     1.498256
      17Ag     1.683455    17Bu     1.683455     7Au     2.018164
       7Bg     2.018164    18Ag     2.024760    18Bu     2.024760
      19Ag     2.516320    19Bu     2.516320    20Ag     2.775437
      20Bu     2.775437     8Au     3.584633     8Bg     3.584633
      21Ag     3.585339    21Bu     3.585339    22Ag     3.670417
      22Bu     3.670417     9Au     3.688226     9Bg     3.688226
      23Ag     4.123658    23Bu     4.123658

    Final Occupation by Irrep:
             Ag    Bg    Au    Bu
    DOCC [     4,    0,    0,    4 ]
    SOCC [     0,    1,    1,    0 ]

  @UHF Final Energy:  -150.80697424609156

   => Energetics <=

    Nuclear Repulsion Energy =              9.1152291064112880
    One-Electron Energy =                -225.9658177763263893
    Two-Electron Energy =                  66.0436144238235272
    Total Energy =                       -150.8069742460915847

  UHF NO Occupations:
  HONO-2 :    4 Ag 1.9980087
  HONO-1 :    1 Au 1.0000000
  HONO-0 :    1 Bg 1.0000000
  LUNO+0 :    5 Bu 0.0019913
  LUNO+1 :    5 Ag 0.0019913
  LUNO+2 :    6 Bu 0.0007631
  LUNO+3 :    6 Ag 0.0007631

Computation Completed

Properties will be evaluated at   0.000000,   0.000000,   0.000000 [a0]

Properties computed using the SCF density matrix

  Nuclear Dipole Moment: [e a0]
     X:     0.0000      Y:     0.0000      Z:     0.0000

  Electronic Dipole Moment: [e a0]
     X:     0.0000      Y:     0.0000      Z:     0.0000

  Dipole Moment: [e a0]
     X:     0.0000      Y:     0.0000      Z:     0.0000     Total:     0.0000

  Dipole Moment: [D]
     X:     0.0000      Y:     0.0000      Z:     0.0000     Total:     0.0000

*** tstop() called on c4-19.compute.lan at Tue Feb 23 14:08:05 2021
Module time:
	user time   =       0.70 seconds =       0.01 minutes
	system time =       0.02 seconds =       0.00 minutes
	total time  =          0 seconds =       0.00 minutes
Total time:
	user time   =       0.70 seconds =       0.01 minutes
	system time =       0.02 seconds =       0.00 minutes
	total time  =          0 seconds =       0.00 minutes
 MINTS: Wrapper to libmints.
   by Justin Turney

   Calculation information:
      Number of threads:                 1
      Number of atoms:                   4
      Number of AO shells:              28
      Number of SO shells:              14
      Number of primitives:             64
      Number of atomic orbitals:        68
      Number of basis functions:        64

      Number of irreps:                  4
      Integral cutoff                 0.00e+00
      Number of functions per irrep: [  23    9    9   23 ]

 OEINTS: Overlap, kinetic, potential, dipole, and quadrupole integrals
         stored in file 35.

      Computing two-electron integrals...done
      Computed 491638 non-zero two-electron integrals.
        Stored in file 33.

*** tstart() called on c4-19.compute.lan
*** at Tue Feb 23 14:08:06 2021

 ==============================================================================
 ==============================================================================
 ==============================================================================

                       MP2
              Program Written by Ugur Bozkaya,
              Latest Revision June 25, 2014.

 ==============================================================================
 ==============================================================================
 ==============================================================================

	RMS orbital gradient is changed to :     1.00e-07
	MAX orbital gradient is changed to :     1.00e-04
	MO spaces per irreps...

	IRREP   FC   AOCC  BOCC  AVIR    BVIR  FV
	==========================================
	  Ag     0     4     4    19     19     0
	  Bg     0     1     0     8      9     0
	  Au     0     1     0     8      9     0
	  Bu     0     4     4    19     19     0
	==========================================

	Computing MP2 energy using SCF MOs (Canonical MP2)...
	==============================================================================
	Nuclear Repulsion Energy (a.u.)    :     9.11522910641129
	SCF Energy (a.u.)                  :  -150.80697424609156
	REF Energy (a.u.)                  :  -150.80697424609156
	Alpha-Alpha Contribution (a.u.)    :    -0.05440034458790
	Alpha-Beta Contribution (a.u.)     :    -0.24781103971764
	Beta-Beta Contribution (a.u.)      :    -0.02626273154720
	Scaled_SS Correlation Energy (a.u.):    -0.02688769204503
	Scaled_OS Correlation Energy (a.u.):    -0.29737324766116
	SCS-MP2 Total Energy (a.u.)        :  -151.13123518579775
	SOS-MP2 Total Energy (a.u.)        :  -150.80697424609156
	SCSN-MP2 Total Energy (a.u.)       :  -150.94894126008936
	SCS-MP2-VDW Total Energy (a.u.)    :  -151.16450391499768
	SOS-PI-MP2 Total Energy (a.u.)     :  -151.15390970169625
	MP2 Correlation Energy (a.u.)      :    -0.32847411585274
	MP2 Total Energy (a.u.)            :  -151.13544836194430
	==============================================================================

*** tstop() called on c4-19.compute.lan at Tue Feb 23 14:08:06 2021
Module time:
	user time   =       0.11 seconds =       0.00 minutes
	system time =       0.03 seconds =       0.00 minutes
	total time  =          0 seconds =       0.00 minutes
Total time:
	user time   =       0.99 seconds =       0.02 minutes
	system time =       0.06 seconds =       0.00 minutes
	total time  =          1 seconds =       0.02 minutes

    Psi4 stopped on: Tuesday, 23 February 2021 02:08PM
    Psi4 wall time for execution: 0:00:01.11

*** Psi4 exiting successfully. Buy a developer a beer!
