                               Psi4 1.3.2 release

  ==> Input File <==

--------------------------------------------------------------------------
memory 4 GB

molecule  {
0 3
O   -1.506400547086   -0.018463005014    0.000000000000
H   -0.545692666786    0.061051882709    0.000000000000
H   -1.821081557572    0.890836057340    0.000000000000
O    1.655528839777   -0.041514588907    0.000000000000
}
set {
basis aug-cc-pvtz
reference uhf
e_convergence 10
scf_type pk
freeze_core true
}

set ccenergy {
e_convergence 10
r_convergence 10
}

e = energy('ccsd(t)')

print_out('Stephenergy {}'.format(e))

--------------------------------------------------------------------------

    Molecular point group: cs

    Geometry (in Angstrom), charge = 0, multiplicity = 3:

       Center              X                  Y                   Z               Mass
    ------------   -----------------  -----------------  -----------------  -----------------
         O           -1.506400547086    -0.018463005014     0.000000000000    15.994914619570
         H           -0.545692666786     0.061051882709     0.000000000000     1.007825032230
         H           -1.821081557572     0.890836057340     0.000000000000     1.007825032230
         O            1.655528839777    -0.041514588907     0.000000000000    15.994914619570

  Charge       = 0
  Multiplicity = 3
  Basis Set: AUG-CC-PVTZ
    Blend: AUG-CC-PVTZ

    Orbital Energies [Eh]
    ---------------------

    Alpha Occupied:

       1Ap   -20.734707     2Ap   -20.558404     3Ap    -1.444094
       4Ap    -1.342040     5Ap    -0.734648     1App   -0.734428
       6Ap    -0.709364     7Ap    -0.636312     8Ap    -0.574269
       2App   -0.501353

    Alpha Virtual:

       9Ap     0.034469    10Ap     0.053380    11Ap     0.127522
       3App    0.131981    12Ap     0.148089    13Ap     0.160967
      14Ap     0.183696     4App    0.186760    15Ap     0.213495
      16Ap     0.242049    17Ap     0.268920     5App    0.284278
      18Ap     0.298071     6App    0.322781    19Ap     0.370071
      20Ap     0.398543    21Ap     0.460388    22Ap     0.563549
       7App    0.600685    23Ap     0.608597    24Ap     0.637609
      25Ap     0.671627    26Ap     0.713644     8App    0.714412
       9App    0.735148    10App    0.748219    27Ap     0.764920
      28Ap     0.807287    11App    0.825076    29Ap     0.844106
      30Ap     0.873722    12App    0.886605    31Ap     0.925249
      13App    0.944634    32Ap     0.945682    33Ap     0.953873
      14App    0.979747    34Ap     0.983055    35Ap     1.043890
      36Ap     1.128832    15App    1.168977    37Ap     1.169067
      38Ap     1.194471    39Ap     1.271065    16App    1.279050
      40Ap     1.325502    17App    1.528278    41Ap     1.569503
      18App    1.600503    42Ap     1.700476    43Ap     1.816863
      44Ap     1.833307    19App    1.976042    45Ap     1.976050
      46Ap     1.986685    20App    2.011886    47Ap     2.017336
      21App    2.050745    48Ap     2.062374    22App    2.125972
      49Ap     2.164368    50Ap     2.176555    23App    2.215487
      24App    2.298787    51Ap     2.315692    52Ap     2.329443
      53Ap     2.417143    25App    2.452898    54Ap     2.461114
      55Ap     2.523438    26App    2.526972    56Ap     2.636833
      57Ap     2.696848    27App    2.729282    58Ap     2.750207
      59Ap     2.859787    60Ap     2.937865    28App    2.946196
      61Ap     3.698400    62Ap     3.900287    29App    4.036233
      30App    4.060039    63Ap     4.074226    31App    4.176566
      64Ap     4.205465    65Ap     4.271288    32App    4.299787
      66Ap     4.390796    33App    4.392232    34App    4.436449
      67Ap     4.436689    68Ap     4.586955    69Ap     4.780442
      70Ap     4.963350    35App    5.153102    71Ap     5.175139
      72Ap     5.303244    73Ap     5.378551    36App    5.523951
      74Ap     5.690236    75Ap     6.193522    37App    6.310588
      76Ap     6.310620    38App    6.374603    77Ap     6.377402
      39App    6.525329    78Ap     6.526091    79Ap     6.562377
      80Ap     6.641660    40App    6.728469    81Ap     6.812655
      41App    6.818977    82Ap     6.915766    42App    6.935628
      83Ap     6.966224    84Ap     7.051187    43App    7.147768
      44App    7.273754    85Ap     7.321413    45App    7.325255
      86Ap     7.361635    46App    7.443555    87Ap     7.654544
      88Ap     7.945023    89Ap     7.964686    90Ap     8.806274
      91Ap     9.476917    92Ap    16.442704

    Beta Occupied:

       1Ap   -20.655921     2Ap   -20.558549     3Ap    -1.342673
       4Ap    -1.101647     5Ap    -0.708264     6Ap    -0.580607
       7Ap    -0.541949     1App   -0.501407

    Beta Virtual:

       8Ap     0.034336     9Ap     0.047387     2App    0.048030
      10Ap     0.056274    11Ap     0.144408    12Ap     0.151544
       3App    0.160777    13Ap     0.179146    14Ap     0.208946
      15Ap     0.221357     4App    0.226275    16Ap     0.251536
      17Ap     0.270651     5App    0.284549    18Ap     0.300261
       6App    0.326792    19Ap     0.374038    20Ap     0.409796
      21Ap     0.461282    22Ap     0.566919     7App    0.633023
      23Ap     0.637078    24Ap     0.642017    25Ap     0.675254
      26Ap     0.714197     8App    0.727353     9App    0.737161
      10App    0.749923    27Ap     0.784717    28Ap     0.819377
      29Ap     0.852870    11App    0.868004    30Ap     0.920092
      12App    0.940075    31Ap     0.944134    13App    0.949031
      32Ap     0.954074    33Ap     0.971863    34Ap     1.017151
      14App    1.023128    35Ap     1.047966    36Ap     1.157855
      15App    1.172454    37Ap     1.176066    38Ap     1.218271
      39Ap     1.273720    16App    1.289858    40Ap     1.335360
      17App    1.529079    41Ap     1.573827    18App    1.602131
      42Ap     1.727136    43Ap     1.822566    44Ap     1.842456
      45Ap     1.993893    19App    2.014092    46Ap     2.014150
      20App    2.055285    47Ap     2.067155    21App    2.174632
      48Ap     2.178144    22App    2.179917    49Ap     2.205033
      50Ap     2.242846    23App    2.252009    24App    2.301293
      51Ap     2.323628    52Ap     2.348561    53Ap     2.422735
      25App    2.455147    54Ap     2.461899    55Ap     2.530147
      26App    2.535826    56Ap     2.643706    57Ap     2.708041
      27App    2.730588    58Ap     2.759288    59Ap     2.862749
      60Ap     2.941385    28App    2.946867    61Ap     3.698966
      62Ap     3.903200    29App    4.037007    30App    4.147203
      63Ap     4.183612    64Ap     4.242906    31App    4.259301
      65Ap     4.291094    32App    4.299941    33App    4.392354
      66Ap     4.401873    34App    4.437630    67Ap     4.473035
      68Ap     4.588419    69Ap     4.781736    70Ap     4.965672
      35App    5.153094    71Ap     5.175629    72Ap     5.303495
      73Ap     5.379766    36App    5.524047    74Ap     5.690769
      75Ap     6.194220    37App    6.419513    76Ap     6.419521
      38App    6.449857    77Ap     6.452667    78Ap     6.534485
      39App    6.579770    79Ap     6.610104    80Ap     6.687104
      40App    6.733438    81Ap     6.917322    41App    7.004645
      82Ap     7.005736    42App    7.044128    83Ap     7.071873
      84Ap     7.131067    43App    7.150222    44App    7.274131
      85Ap     7.321644    45App    7.326079    86Ap     7.362195
      46App    7.444000    87Ap     7.655620    88Ap     7.945560
      89Ap     7.964996    90Ap     8.808464    91Ap     9.551513
      92Ap    16.443194

    Final Occupation by Irrep:
             Ap   App
    DOCC [     7,    1 ]
    SOCC [     1,    1 ]

  @UHF Final Energy:  -150.87430134397025

   => Energetics <=

    Nuclear Repulsion Energy =             22.9469529697521679
    One-Electron Energy =                -253.6818726417266134
    Two-Electron Energy =                  79.8606183280042075
    Total Energy =                       -150.8743013439702167

  UHF NO Occupations:
  HONO-2 :    7 Ap 1.9970274
  HONO-1 :    2App 1.0000000
  HONO-0 :    8 Ap 1.0000000
  LUNO+0 :    9 Ap 0.0029726
  LUNO+1 :   10 Ap 0.0017116
  LUNO+2 :   11 Ap 0.0000024
  LUNO+3 :   12 Ap 0.0000020

Computation Completed

Properties will be evaluated at   0.000000,   0.000000,   0.000000 [a0]

Properties computed using the SCF density matrix

  Nuclear Dipole Moment: [e a0]
     X:    -2.2181      Y:     0.8921      Z:     0.0000

  Electronic Dipole Moment: [e a0]
     X:     2.7437      Y:    -0.2474      Z:     0.0000

  Dipole Moment: [e a0]
     X:     0.5256      Y:     0.6447      Z:     0.0000     Total:     0.8318

  Dipole Moment: [D]
     X:     1.3360      Y:     1.6387      Z:     0.0000     Total:     2.1142

*** tstop() called on c5-20.compute.lan at Tue Mar  9 15:19:07 2021
Module time:
	user time   =      57.40 seconds =       0.96 minutes
	system time =       0.87 seconds =       0.01 minutes
	total time  =          5 seconds =       0.08 minutes
Total time:
	user time   =      57.40 seconds =       0.96 minutes
	system time =       0.87 seconds =       0.01 minutes
	total time  =          5 seconds =       0.08 minutes
 MINTS: Wrapper to libmints.
   by Justin Turney

   Calculation information:
      Number of threads:                12
      Number of atoms:                   4
      Number of AO shells:              46
      Number of SO shells:              46
      Number of primitives:             82
      Number of atomic orbitals:       160
      Number of basis functions:       138

      Number of irreps:                  2
      Integral cutoff                 0.00e+00
      Number of functions per irrep: [  92   46 ]

 OEINTS: Overlap, kinetic, potential, dipole, and quadrupole integrals
         stored in file 35.

      Computing two-electron integrals...done
      Computed 22922227 non-zero two-electron integrals.
        Stored in file 33.

*** tstart() called on c5-20.compute.lan
*** at Tue Mar  9 15:19:10 2021

	Wfn Parameters:
	--------------------
	Wavefunction         = CCSD_T
	Number of irreps     = 2
	Number of MOs        = 138
	Number of active MOs = 136
	AO-Basis             = NONE
	Semicanonical        = false
	Reference            = UHF
	Print Level          = 1

	IRREP	# MOs	# FZDC	# DOCC	# SOCC	# VIRT	# FZVR
	-----	-----	------	------	------	------	------
	 Ap	   92	    2	    5	    1	    84	    0
	 App	   46	    0	    1	    1	    44	    0
	Transforming integrals...
	IWL integrals will be deleted.
	(OO|OO)...
	Presorting SO-basis two-electron integrals.
	Sorting File: SO Ints (nn|nn) nbuckets = 1
	Transforming the one-electron integrals and constructing Fock matrices
	Starting AA/AB first half-transformation.
	Sorting AA/AB half-transformed integrals.
	Starting BB first half-transformation.
	Sorting BB half-transformed integrals.
	First half integral transformation complete.
	Starting AA second half-transformation.
	Starting AB second half-transformation.
	Starting BB second half-transformation.
	Two-electron integral transformation complete.
	(OO|OV)...
	Starting AA second half-transformation.
	Starting AB second half-transformation.
	Starting BB second half-transformation.
	Two-electron integral transformation complete.
	(OO|VV)...
	Starting AA second half-transformation.
	Starting AB second half-transformation.
	Starting BB second half-transformation.
	Two-electron integral transformation complete.
	(OV|OO)...
	Starting AA/AB first half-transformation.
	Sorting AA/AB half-transformed integrals.
	Starting BB first half-transformation.
	Sorting BB half-transformed integrals.
	First half integral transformation complete.
	Starting AA second half-transformation.
	Starting AB second half-transformation.
	Starting BB second half-transformation.
	Two-electron integral transformation complete.
	(OV|OV)...
	Starting AA second half-transformation.
	Starting AB second half-transformation.
	Starting BB second half-transformation.
	Two-electron integral transformation complete.
	(OV|VV)...
	Starting AA second half-transformation.
	Starting AB second half-transformation.
	Starting BB second half-transformation.
	Two-electron integral transformation complete.
	(VV|OO)...
	Starting AA/AB first half-transformation.
	Sorting AA/AB half-transformed integrals.
	Starting BB first half-transformation.
	Sorting BB half-transformed integrals.
	First half integral transformation complete.
	Starting AA second half-transformation.
	Starting AB second half-transformation.
	Starting BB second half-transformation.
	Two-electron integral transformation complete.
	(VV|OV)...
	Starting AA second half-transformation.
	Starting AB second half-transformation.
	Starting BB second half-transformation.
	Two-electron integral transformation complete.
	(VV|VV)...
	Starting AA second half-transformation.
	Starting AB second half-transformation.
	Starting BB second half-transformation.
	Two-electron integral transformation complete.
	Frozen core energy     =   -125.86901311866424

	Size of irrep 0 of <AB|CD> integrals:     19.643 (MW) /    157.141 (MB)
	Size of irrep 1 of <AB|CD> integrals:     13.660 (MW) /    109.283 (MB)
	Total:                                    33.303 (MW) /    266.424 (MB)

	Size of irrep 0 of <ab|cd> integrals:     20.794 (MW) /    166.349 (MB)
	Size of irrep 1 of <ab|cd> integrals:     14.631 (MW) /    117.045 (MB)
	Total:                                    35.424 (MW) /    283.394 (MB)

	Size of irrep 0 of <Ab|Cd> integrals:     83.174 (MW) /    665.395 (MB)
	Size of irrep 1 of <Ab|Cd> integrals:     56.550 (MW) /    452.403 (MB)
	Total:                                   139.725 (MW) /   1117.798 (MB)

	Size of irrep 0 of <IA|BC> integrals:      5.323 (MW) /     42.586 (MB)
	Size of irrep 1 of <IA|BC> integrals:      3.193 (MW) /     25.547 (MB)
	Total:                                     8.517 (MW) /     68.133 (MB)

	Size of irrep 0 of <ia|bc> integrals:      4.348 (MW) /     34.780 (MB)
	Size of irrep 1 of <ia|bc> integrals:      2.372 (MW) /     18.972 (MB)
	Total:                                     6.719 (MW) /     53.752 (MB)

	Size of irrep 0 of <Ia|Bc> integrals:      5.472 (MW) /     43.776 (MB)
	Size of irrep 1 of <Ia|Bc> integrals:      3.309 (MW) /     26.470 (MB)
	Total:                                     8.781 (MW) /     70.246 (MB)

	Size of irrep 0 of <iA|bC> integrals:      4.232 (MW) /     33.853 (MB)
	Size of irrep 1 of <iA|bC> integrals:      2.286 (MW) /     18.289 (MB)
	Total:                                     6.518 (MW) /     52.142 (MB)

	Size of irrep 0 of tIjAb amplitudes:       0.292 (MW) /      2.335 (MB)
	Size of irrep 1 of tIjAb amplitudes:       0.120 (MW) /      0.963 (MB)
	Total:                                     0.412 (MW) /      3.297 (MB)

	Nuclear Rep. energy          =     22.94695296975217
	SCF energy                   =   -150.87430134397025
	One-electron energy          =    -84.45143007284659
	Two-electron (AA) energy     =     10.14400578733556
	Two-electron (BB) energy     =      5.39672178306267
	Two-electron (AB) energy     =     20.95846130738900
	Two-electron energy          =     36.49918887778723
	Reference energy             =   -150.87430134397144

*** tstop() called on c5-20.compute.lan at Tue Mar  9 15:19:43 2021
Module time:
	user time   =     106.00 seconds =       1.77 minutes
	system time =      18.12 seconds =       0.30 minutes
	total time  =         33 seconds =       0.55 minutes
Total time:
	user time   =     169.53 seconds =       2.83 minutes
	system time =      19.52 seconds =       0.33 minutes
	total time  =         41 seconds =       0.68 minutes
            **************************
            *                        *
            *        CCENERGY        *
            *                        *
            **************************

    Nuclear Rep. energy (wfn)     =   22.946952969752168
    SCF energy          (wfn)     = -150.874301343970245
    Reference energy    (file100) = -150.874301343971439

    Input parameters:
    -----------------
    Wave function   =     CCSD_T
    Reference wfn   =     UHF
    Brueckner       =     No
    Memory (Mbytes) =     4000.0
    Maxiter         =     50
    R_Convergence   =     1.0e-10
    E_Convergence   =     1.0e-10
    Restart         =     Yes
    DIIS            =     Yes
    AO Basis        =     NONE
    ABCD            =     NEW
    Cache Level     =     2
    Cache Type      =     LRU
    Print Level     =     1
    Num. of threads =     12
    # Amps to Print =     10
    Print MP2 Amps? =     No
    Analyze T2 Amps =     No
    Print Pair Ener =     No
    Local CC        =     No
    SCS-MP2         =     False
    SCSN-MP2        =     False
    SCS-CCSD        =     False

MP2 correlation energy -0.4167440585472433
                Solving CC Amplitude Equations
                ------------------------------
  Iter             Energy              RMS        T1Diag      D1Diag    New D1Diag    D2Diag
  ----     ---------------------    ---------   ----------  ----------  ----------   --------
     0        -0.416744058547243    0.000e+00    0.000000    0.000000    0.000000    0.000000
     1        -0.427436479307431    5.695e-02    0.010569    0.000000    0.000000    0.000000
     2        -0.435538968276991    1.691e-02    0.011052    0.000000    0.000000    0.000000
     3        -0.437661722240320    8.595e-03    0.012929    0.000000    0.000000    0.000000
     4        -0.437536320425852    2.539e-03    0.013299    0.000000    0.000000    0.000000
     5        -0.437521120774826    1.332e-03    0.013458    0.000000    0.000000    0.000000
     6        -0.437548560583190    5.184e-04    0.013482    0.000000    0.000000    0.000000
     7        -0.437553363317704    2.719e-04    0.013478    0.000000    0.000000    0.000000
     8        -0.437553926754920    1.005e-04    0.013473    0.000000    0.000000    0.000000
     9        -0.437555345097832    7.329e-05    0.013475    0.000000    0.000000    0.000000
    10        -0.437553727553819    6.166e-05    0.013476    0.000000    0.000000    0.000000
    11        -0.437553878733566    5.821e-05    0.013477    0.000000    0.000000    0.000000
    12        -0.437553646794964    5.636e-05    0.013479    0.000000    0.000000    0.000000
    13        -0.437553645542881    5.534e-05    0.013481    0.000000    0.000000    0.000000
    14        -0.437554687195543    5.384e-05    0.013494    0.000000    0.000000    0.000000
    15        -0.437555050696218    4.855e-05    0.013551    0.000000    0.000000    0.000000
    16        -0.437554809892013    3.368e-05    0.013677    0.000000    0.000000    0.000000
    17        -0.437554480501788    1.658e-05    0.013746    0.000000    0.000000    0.000000
    18        -0.437554333097604    7.791e-06    0.013765    0.000000    0.000000    0.000000
    19        -0.437554582235675    3.450e-06    0.013770    0.000000    0.000000    0.000000
    20        -0.437554698523952    1.538e-06    0.013770    0.000000    0.000000    0.000000
    21        -0.437554706325006    6.199e-07    0.013771    0.000000    0.000000    0.000000
    22        -0.437554707855999    2.948e-07    0.013771    0.000000    0.000000    0.000000
    23        -0.437554706864119    1.525e-07    0.013771    0.000000    0.000000    0.000000
    24        -0.437554705935164    6.157e-08    0.013771    0.000000    0.000000    0.000000
    25        -0.437554706897498    3.197e-08    0.013771    0.000000    0.000000    0.000000
    26        -0.437554707365229    2.383e-08    0.013771    0.000000    0.000000    0.000000
    27        -0.437554707519368    2.217e-08    0.013771    0.000000    0.000000    0.000000
    28        -0.437554707483213    2.151e-08    0.013771    0.000000    0.000000    0.000000
    29        -0.437554707355769    2.103e-08    0.013771    0.000000    0.000000    0.000000
    30        -0.437554707119505    2.037e-08    0.013771    0.000000    0.000000    0.000000
    31        -0.437554707178451    1.838e-08    0.013771    0.000000    0.000000    0.000000
    32        -0.437554707496510    1.139e-08    0.013771    0.000000    0.000000    0.000000
    33        -0.437554707617028    5.208e-09    0.013771    0.000000    0.000000    0.000000
    34        -0.437554707689124    2.149e-09    0.013771    0.000000    0.000000    0.000000
    35        -0.437554707697700    8.084e-10    0.013771    0.000000    0.000000    0.000000
    36        -0.437554707698556    3.334e-10    0.013771    0.000000    0.000000    0.000000

      * MP2 total energy                      = -151.291045402518677
      * CCSD total energy                     = -151.311856051669935
      * CCSD(T) total energy                     = -151.324232294909677
*** Psi4 exiting successfully. Buy a developer a beer!
